<?xml version="1.0"?>
<VTKFile type="UnstructuredGrid"  version="0.1"  >
<UnstructuredGrid>
<Piece  NumberOfPoints="5101" NumberOfCells="10000">
<Points>
<DataArray  type="Float64"  NumberOfComponents="3"  format="ascii">0 0 0  0.2 0 0  0.4 0 0  0.6 0 0  0.8 0 0  1 0 0  1.2 0 0  1.4 0 0  1.6 0 0  1.8 0 0  2 0 0  2.2 0 0  2.4 0 0  2.6 0 0  2.8 0 0  3 0 0  3.2 0 0  3.4 0 0  3.6 0 0  3.8 0 0  4 0 0  4.2 0 0  4.4 0 0  4.6 0 0  4.8 0 0  5 0 0  5.2 0 0  5.4 0 0  5.6 0 0  5.8 0 0  6 0 0  6.2 0 0  6.4 0 0  6.6 0 0  6.8 0 0  7 0 0  7.2 0 0  7.4 0 0  7.6 0 0  7.8 0 0  8 0 0  8.199999999999999 0 0  8.4 0 0  8.6 0 0  8.800000000000001 0 0  9 0 0  9.199999999999999 0 0  9.4 0 0  9.6 0 0  9.800000000000001 0 0  10 0 0  0 0.2 0  0.2 0.2 0  0.4 0.2 0  0.6 0.2 0  0.8 0.2 0  1 0.2 0  1.2 0.2 0  1.4 0.2 0  1.6 0.2 0  1.8 0.2 0  2 0.2 0  2.2 0.2 0  2.4 0.2 0  2.6 0.2 0  2.8 0.2 0  3 0.2 0  3.2 0.2 0  3.4 0.2 0  3.6 0.2 0  3.8 0.2 0  4 0.2 0  4.2 0.2 0  4.4 0.2 0  4.6 0.2 0  4.8 0.2 0  5 0.2 0  5.2 0.2 0  5.4 0.2 0  5.6 0.2 0  5.8 0.2 0  6 0.2 0  6.2 0.2 0  6.4 0.2 0  6.6 0.2 0  6.8 0.2 0  7 0.2 0  7.2 0.2 0  7.4 0.2 0  7.6 0.2 0  7.8 0.2 0  8 0.2 0  8.199999999999999 0.2 0  8.4 0.2 0  8.6 0.2 0  8.800000000000001 0.2 0  9 0.2 0  9.199999999999999 0.2 0  9.4 0.2 0  9.6 0.2 0  9.800000000000001 0.2 0  10 0.2 0  0 0.4 0  0.2 0.4 0  0.4 0.4 0  0.6 0.4 0  0.8 0.4 0  1 0.4 0  1.2 0.4 0  1.4 0.4 0  1.6 0.4 0  1.8 0.4 0  2 0.4 0  2.2 0.4 0  2.4 0.4 0  2.6 0.4 0  2.8 0.4 0  3 0.4 0  3.2 0.4 0  3.4 0.4 0  3.6 0.4 0  3.8 0.4 0  4 0.4 0  4.2 0.4 0  4.4 0.4 0  4.6 0.4 0  4.8 0.4 0  5 0.4 0  5.2 0.4 0  5.4 0.4 0  5.6 0.4 0  5.8 0.4 0  6 0.4 0  6.2 0.4 0  6.4 0.4 0  6.6 0.4 0  6.8 0.4 0  7 0.4 0  7.2 0.4 0  7.4 0.4 0  7.6 0.4 0  7.8 0.4 0  8 0.4 0  8.199999999999999 0.4 0  8.4 0.4 0  8.6 0.4 0  8.800000000000001 0.4 0  9 0.4 0  9.199999999999999 0.4 0  9.4 0.4 0  9.6 0.4 0  9.800000000000001 0.4 0  10 0.4 0  0 0.6 0  0.2 0.6 0  0.4 0.6 0  0.6 0.6 0  0.8 0.6 0  1 0.6 0  1.2 0.6 0  1.4 0.6 0  1.6 0.6 0  1.8 0.6 0  2 0.6 0  2.2 0.6 0  2.4 0.6 0  2.6 0.6 0  2.8 0.6 0  3 0.6 0  3.2 0.6 0  3.4 0.6 0  3.6 0.6 0  3.8 0.6 0  4 0.6 0  4.2 0.6 0  4.4 0.6 0  4.6 0.6 0  4.8 0.6 0  5 0.6 0  5.2 0.6 0  5.4 0.6 0  5.6 0.6 0  5.8 0.6 0  6 0.6 0  6.2 0.6 0  6.4 0.6 0  6.6 0.6 0  6.8 0.6 0  7 0.6 0  7.2 0.6 0  7.4 0.6 0  7.6 0.6 0  7.8 0.6 0  8 0.6 0  8.199999999999999 0.6 0  8.4 0.6 0  8.6 0.6 0  8.800000000000001 0.6 0  9 0.6 0  9.199999999999999 0.6 0  9.4 0.6 0  9.6 0.6 0  9.800000000000001 0.6 0  10 0.6 0  0 0.8 0  0.2 0.8 0  0.4 0.8 0  0.6 0.8 0  0.8 0.8 0  1 0.8 0  1.2 0.8 0  1.4 0.8 0  1.6 0.8 0  1.8 0.8 0  2 0.8 0  2.2 0.8 0  2.4 0.8 0  2.6 0.8 0  2.8 0.8 0  3 0.8 0  3.2 0.8 0  3.4 0.8 0  3.6 0.8 0  3.8 0.8 0  4 0.8 0  4.2 0.8 0  4.4 0.8 0  4.6 0.8 0  4.8 0.8 0  5 0.8 0  5.2 0.8 0  5.4 0.8 0  5.6 0.8 0  5.8 0.8 0  6 0.8 0  6.2 0.8 0  6.4 0.8 0  6.6 0.8 0  6.8 0.8 0  7 0.8 0  7.2 0.8 0  7.4 0.8 0  7.6 0.8 0  7.8 0.8 0  8 0.8 0  8.199999999999999 0.8 0  8.4 0.8 0  8.6 0.8 0  8.800000000000001 0.8 0  9 0.8 0  9.199999999999999 0.8 0  9.4 0.8 0  9.6 0.8 0  9.800000000000001 0.8 0  10 0.8 0  0 1 0  0.2 1 0  0.4 1 0  0.6 1 0  0.8 1 0  1 1 0  1.2 1 0  1.4 1 0  1.6 1 0  1.8 1 0  2 1 0  2.2 1 0  2.4 1 0  2.6 1 0  2.8 1 0  3 1 0  3.2 1 0  3.4 1 0  3.6 1 0  3.8 1 0  4 1 0  4.2 1 0  4.4 1 0  4.6 1 0  4.8 1 0  5 1 0  5.2 1 0  5.4 1 0  5.6 1 0  5.8 1 0  6 1 0  6.2 1 0  6.4 1 0  6.6 1 0  6.8 1 0  7 1 0  7.2 1 0  7.4 1 0  7.6 1 0  7.8 1 0  8 1 0  8.199999999999999 1 0  8.4 1 0  8.6 1 0  8.800000000000001 1 0  9 1 0  9.199999999999999 1 0  9.4 1 0  9.6 1 0  9.800000000000001 1 0  10 1 0  0 1.2 0  0.2 1.2 0  0.4 1.2 0  0.6 1.2 0  0.8 1.2 0  1 1.2 0  1.2 1.2 0  1.4 1.2 0  1.6 1.2 0  1.8 1.2 0  2 1.2 0  2.2 1.2 0  2.4 1.2 0  2.6 1.2 0  2.8 1.2 0  3 1.2 0  3.2 1.2 0  3.4 1.2 0  3.6 1.2 0  3.8 1.2 0  4 1.2 0  4.2 1.2 0  4.4 1.2 0  4.6 1.2 0  4.8 1.2 0  5 1.2 0  5.2 1.2 0  5.4 1.2 0  5.6 1.2 0  5.8 1.2 0  6 1.2 0  6.2 1.2 0  6.4 1.2 0  6.6 1.2 0  6.8 1.2 0  7 1.2 0  7.2 1.2 0  7.4 1.2 0  7.6 1.2 0  7.8 1.2 0  8 1.2 0  8.199999999999999 1.2 0  8.4 1.2 0  8.6 1.2 0  8.800000000000001 1.2 0  9 1.2 0  9.199999999999999 1.2 0  9.4 1.2 0  9.6 1.2 0  9.800000000000001 1.2 0  10 1.2 0  0 1.4 0  0.2 1.4 0  0.4 1.4 0  0.6 1.4 0  0.8 1.4 0  1 1.4 0  1.2 1.4 0  1.4 1.4 0  1.6 1.4 0  1.8 1.4 0  2 1.4 0  2.2 1.4 0  2.4 1.4 0  2.6 1.4 0  2.8 1.4 0  3 1.4 0  3.2 1.4 0  3.4 1.4 0  3.6 1.4 0  3.8 1.4 0  4 1.4 0  4.2 1.4 0  4.4 1.4 0  4.6 1.4 0  4.8 1.4 0  5 1.4 0  5.2 1.4 0  5.4 1.4 0  5.6 1.4 0  5.8 1.4 0  6 1.4 0  6.2 1.4 0  6.4 1.4 0  6.6 1.4 0  6.8 1.4 0  7 1.4 0  7.2 1.4 0  7.4 1.4 0  7.6 1.4 0  7.8 1.4 0  8 1.4 0  8.199999999999999 1.4 0  8.4 1.4 0  8.6 1.4 0  8.800000000000001 1.4 0  9 1.4 0  9.199999999999999 1.4 0  9.4 1.4 0  9.6 1.4 0  9.800000000000001 1.4 0  10 1.4 0  0 1.6 0  0.2 1.6 0  0.4 1.6 0  0.6 1.6 0  0.8 1.6 0  1 1.6 0  1.2 1.6 0  1.4 1.6 0  1.6 1.6 0  1.8 1.6 0  2 1.6 0  2.2 1.6 0  2.4 1.6 0  2.6 1.6 0  2.8 1.6 0  3 1.6 0  3.2 1.6 0  3.4 1.6 0  3.6 1.6 0  3.8 1.6 0  4 1.6 0  4.2 1.6 0  4.4 1.6 0  4.6 1.6 0  4.8 1.6 0  5 1.6 0  5.2 1.6 0  5.4 1.6 0  5.6 1.6 0  5.8 1.6 0  6 1.6 0  6.2 1.6 0  6.4 1.6 0  6.6 1.6 0  6.8 1.6 0  7 1.6 0  7.2 1.6 0  7.4 1.6 0  7.6 1.6 0  7.8 1.6 0  8 1.6 0  8.199999999999999 1.6 0  8.4 1.6 0  8.6 1.6 0  8.800000000000001 1.6 0  9 1.6 0  9.199999999999999 1.6 0  9.4 1.6 0  9.6 1.6 0  9.800000000000001 1.6 0  10 1.6 0  0 1.8 0  0.2 1.8 0  0.4 1.8 0  0.6 1.8 0  0.8 1.8 0  1 1.8 0  1.2 1.8 0  1.4 1.8 0  1.6 1.8 0  1.8 1.8 0  2 1.8 0  2.2 1.8 0  2.4 1.8 0  2.6 1.8 0  2.8 1.8 0  3 1.8 0  3.2 1.8 0  3.4 1.8 0  3.6 1.8 0  3.8 1.8 0  4 1.8 0  4.2 1.8 0  4.4 1.8 0  4.6 1.8 0  4.8 1.8 0  5 1.8 0  5.2 1.8 0  5.4 1.8 0  5.6 1.8 0  5.8 1.8 0  6 1.8 0  6.2 1.8 0  6.4 1.8 0  6.6 1.8 0  6.8 1.8 0  7 1.8 0  7.2 1.8 0  7.4 1.8 0  7.6 1.8 0  7.8 1.8 0  8 1.8 0  8.199999999999999 1.8 0  8.4 1.8 0  8.6 1.8 0  8.800000000000001 1.8 0  9 1.8 0  9.199999999999999 1.8 0  9.4 1.8 0  9.6 1.8 0  9.800000000000001 1.8 0  10 1.8 0  0 2 0  0.2 2 0  0.4 2 0  0.6 2 0  0.8 2 0  1 2 0  1.2 2 0  1.4 2 0  1.6 2 0  1.8 2 0  2 2 0  2.2 2 0  2.4 2 0  2.6 2 0  2.8 2 0  3 2 0  3.2 2 0  3.4 2 0  3.6 2 0  3.8 2 0  4 2 0  4.2 2 0  4.4 2 0  4.6 2 0  4.8 2 0  5 2 0  5.2 2 0  5.4 2 0  5.6 2 0  5.8 2 0  6 2 0  6.2 2 0  6.4 2 0  6.6 2 0  6.8 2 0  7 2 0  7.2 2 0  7.4 2 0  7.6 2 0  7.8 2 0  8 2 0  8.199999999999999 2 0  8.4 2 0  8.6 2 0  8.800000000000001 2 0  9 2 0  9.199999999999999 2 0  9.4 2 0  9.6 2 0  9.800000000000001 2 0  10 2 0  0 2.2 0  0.2 2.2 0  0.4 2.2 0  0.6 2.2 0  0.8 2.2 0  1 2.2 0  1.2 2.2 0  1.4 2.2 0  1.6 2.2 0  1.8 2.2 0  2 2.2 0  2.2 2.2 0  2.4 2.2 0  2.6 2.2 0  2.8 2.2 0  3 2.2 0  3.2 2.2 0  3.4 2.2 0  3.6 2.2 0  3.8 2.2 0  4 2.2 0  4.2 2.2 0  4.4 2.2 0  4.6 2.2 0  4.8 2.2 0  5 2.2 0  5.2 2.2 0  5.4 2.2 0  5.6 2.2 0  5.8 2.2 0  6 2.2 0  6.2 2.2 0  6.4 2.2 0  6.6 2.2 0  6.8 2.2 0  7 2.2 0  7.2 2.2 0  7.4 2.2 0  7.6 2.2 0  7.8 2.2 0  8 2.2 0  8.199999999999999 2.2 0  8.4 2.2 0  8.6 2.2 0  8.800000000000001 2.2 0  9 2.2 0  9.199999999999999 2.2 0  9.4 2.2 0  9.6 2.2 0  9.800000000000001 2.2 0  10 2.2 0  0 2.4 0  0.2 2.4 0  0.4 2.4 0  0.6 2.4 0  0.8 2.4 0  1 2.4 0  1.2 2.4 0  1.4 2.4 0  1.6 2.4 0  1.8 2.4 0  2 2.4 0  2.2 2.4 0  2.4 2.4 0  2.6 2.4 0  2.8 2.4 0  3 2.4 0  3.2 2.4 0  3.4 2.4 0  3.6 2.4 0  3.8 2.4 0  4 2.4 0  4.2 2.4 0  4.4 2.4 0  4.6 2.4 0  4.8 2.4 0  5 2.4 0  5.2 2.4 0  5.4 2.4 0  5.6 2.4 0  5.8 2.4 0  6 2.4 0  6.2 2.4 0  6.4 2.4 0  6.6 2.4 0  6.8 2.4 0  7 2.4 0  7.2 2.4 0  7.4 2.4 0  7.6 2.4 0  7.8 2.4 0  8 2.4 0  8.199999999999999 2.4 0  8.4 2.4 0  8.6 2.4 0  8.800000000000001 2.4 0  9 2.4 0  9.199999999999999 2.4 0  9.4 2.4 0  9.6 2.4 0  9.800000000000001 2.4 0  10 2.4 0  0 2.6 0  0.2 2.6 0  0.4 2.6 0  0.6 2.6 0  0.8 2.6 0  1 2.6 0  1.2 2.6 0  1.4 2.6 0  1.6 2.6 0  1.8 2.6 0  2 2.6 0  2.2 2.6 0  2.4 2.6 0  2.6 2.6 0  2.8 2.6 0  3 2.6 0  3.2 2.6 0  3.4 2.6 0  3.6 2.6 0  3.8 2.6 0  4 2.6 0  4.2 2.6 0  4.4 2.6 0  4.6 2.6 0  4.8 2.6 0  5 2.6 0  5.2 2.6 0  5.4 2.6 0  5.6 2.6 0  5.8 2.6 0  6 2.6 0  6.2 2.6 0  6.4 2.6 0  6.6 2.6 0  6.8 2.6 0  7 2.6 0  7.2 2.6 0  7.4 2.6 0  7.6 2.6 0  7.8 2.6 0  8 2.6 0  8.199999999999999 2.6 0  8.4 2.6 0  8.6 2.6 0  8.800000000000001 2.6 0  9 2.6 0  9.199999999999999 2.6 0  9.4 2.6 0  9.6 2.6 0  9.800000000000001 2.6 0  10 2.6 0  0 2.8 0  0.2 2.8 0  0.4 2.8 0  0.6 2.8 0  0.8 2.8 0  1 2.8 0  1.2 2.8 0  1.4 2.8 0  1.6 2.8 0  1.8 2.8 0  2 2.8 0  2.2 2.8 0  2.4 2.8 0  2.6 2.8 0  2.8 2.8 0  3 2.8 0  3.2 2.8 0  3.4 2.8 0  3.6 2.8 0  3.8 2.8 0  4 2.8 0  4.2 2.8 0  4.4 2.8 0  4.6 2.8 0  4.8 2.8 0  5 2.8 0  5.2 2.8 0  5.4 2.8 0  5.6 2.8 0  5.8 2.8 0  6 2.8 0  6.2 2.8 0  6.4 2.8 0  6.6 2.8 0  6.8 2.8 0  7 2.8 0  7.2 2.8 0  7.4 2.8 0  7.6 2.8 0  7.8 2.8 0  8 2.8 0  8.199999999999999 2.8 0  8.4 2.8 0  8.6 2.8 0  8.800000000000001 2.8 0  9 2.8 0  9.199999999999999 2.8 0  9.4 2.8 0  9.6 2.8 0  9.800000000000001 2.8 0  10 2.8 0  0 3 0  0.2 3 0  0.4 3 0  0.6 3 0  0.8 3 0  1 3 0  1.2 3 0  1.4 3 0  1.6 3 0  1.8 3 0  2 3 0  2.2 3 0  2.4 3 0  2.6 3 0  2.8 3 0  3 3 0  3.2 3 0  3.4 3 0  3.6 3 0  3.8 3 0  4 3 0  4.2 3 0  4.4 3 0  4.6 3 0  4.8 3 0  5 3 0  5.2 3 0  5.4 3 0  5.6 3 0  5.8 3 0  6 3 0  6.2 3 0  6.4 3 0  6.6 3 0  6.8 3 0  7 3 0  7.2 3 0  7.4 3 0  7.6 3 0  7.8 3 0  8 3 0  8.199999999999999 3 0  8.4 3 0  8.6 3 0  8.800000000000001 3 0  9 3 0  9.199999999999999 3 0  9.4 3 0  9.6 3 0  9.800000000000001 3 0  10 3 0  0 3.2 0  0.2 3.2 0  0.4 3.2 0  0.6 3.2 0  0.8 3.2 0  1 3.2 0  1.2 3.2 0  1.4 3.2 0  1.6 3.2 0  1.8 3.2 0  2 3.2 0  2.2 3.2 0  2.4 3.2 0  2.6 3.2 0  2.8 3.2 0  3 3.2 0  3.2 3.2 0  3.4 3.2 0  3.6 3.2 0  3.8 3.2 0  4 3.2 0  4.2 3.2 0  4.4 3.2 0  4.6 3.2 0  4.8 3.2 0  5 3.2 0  5.2 3.2 0  5.4 3.2 0  5.6 3.2 0  5.8 3.2 0  6 3.2 0  6.2 3.2 0  6.4 3.2 0  6.6 3.2 0  6.8 3.2 0  7 3.2 0  7.2 3.2 0  7.4 3.2 0  7.6 3.2 0  7.8 3.2 0  8 3.2 0  8.199999999999999 3.2 0  8.4 3.2 0  8.6 3.2 0  8.800000000000001 3.2 0  9 3.2 0  9.199999999999999 3.2 0  9.4 3.2 0  9.6 3.2 0  9.800000000000001 3.2 0  10 3.2 0  0 3.4 0  0.2 3.4 0  0.4 3.4 0  0.6 3.4 0  0.8 3.4 0  1 
[...]
<PointData  Scalars="f_6"> 
<DataArray  type="Float64"  Name="f_6"  format="ascii">7.5342463518586330e-03  6.0317300170912511e-02  8.9762295229249237e-02  1.0956447754185686e-01  1.2385333617311672e-01  1.3444559203711248e-01  1.4245390632202454e-01  1.4858262219984780e-01  1.5331744230151972e-01  1.5700082368672713e-01  1.5988204060849612e-01  1.6214548378061605e-01  1.6392964059725040e-01  1.6533962388964815e-01  1.6645590691189718e-01  1.6734050013148566e-01  1.6804141857313684e-01  1.6859595682788905e-01  1.6903311846044705e-01  1.6937543270825062e-01  1.6964031952492889e-01  1.6984111586115158e-01  1.6998784322777127e-01  1.7008777352261498e-01  1.7014583345405426e-01  1.7016487546869138e-01  1.7014583345205983e-01  1.7008777352244225e-01  1.6998784322799196e-01  1.6984111586169306e-01  1.6964031952569067e-01  1.6937543270913361e-01  1.6903311846141439e-01  1.6859595682888820e-01  1.6804141857412805e-01  1.6734050013247570e-01  1.6645590691287948e-01  1.6533962389060811e-01  1.6392964059817852e-01  1.6214548378146468e-01  1.5988204060935976e-01  1.5700082368758825e-01  1.5331744230237537e-01  1.4858262220068699e-01  1.4245390632288077e-01  1.3444559203796561e-01  1.2385333617391987e-01  1.0956447754261800e-01  8.9762295229936603e-02  6.0317300171232671e-02  7.5342463520180793e-03  3.6817808109598513e-03  3.8099561726040773e-02  6.2382411420900334e-02  8.0879531368566140e-02  9.4327935835705062e-02  1.0452036772768526e-01  1.1226237913553531e-01  1.1822782693145294e-01  1.2285102659936320e-01  1.2645839386698271e-01  1.2928588033530000e-01  1.3151090514205194e-01  1.3326713258472656e-01  1.3465659667238894e-01  1.3575765988702757e-01  1.3663088172767118e-01  1.3732325641017298e-01  1.3787135194177824e-01  1.3830364889095720e-01  1.3864229726832192e-01  1.3890444104928329e-01  1.3910321672017661e-01  1.3924850172496356e-01  1.3934746714646687e-01  1.3940497325475140e-01  1.3942383474316958e-01  1.3940497325295628e-01  1.3934746714632720e-01  1.3924850172516920e-01  1.3910321672075002e-01  1.3890444105004410e-01  1.3864229726921218e-01  1.3830364889192875e-01  1.3787135194277969e-01  1.3732325641118104e-01  1.3663088172867813e-01  1.3575765988802091e-01  1.3465659667335381e-01  1.3326713258566586e-01  1.3151090514291927e-01  1.2928588033617833e-01  1.2645839386784727e-01  1.2285102660022441e-01  1.1822782693229070e-01  1.1226237913638626e-01  1.0452036772853257e-01  9.4327935836523380e-02  8.0879531369303592e-02  6.2382411421688065e-02  3.8099561726298699e-02  3.6817808110073610e-03  1.9777078701425361e-03  2.5778489234182283e-02  4.4706968007483527e-02  5.9997939249036528e-02  7.1894355201181648e-02  8.1097840039740743e-02  8.8255708534584545e-02  9.3830643045446888e-02  9.8195652071687109e-02  1.0162375885840141e-01  1.0432552997629854e-01  1.0646047122506541e-01  1.0815138041781595e-01  1.0949290934730797e-01  1.1055847469200543e-01  1.1140520853465971e-01  1.1207770402577588e-01  1.1261082196618383e-01  1.1303181694670365e-01  1.1336195194065983e-01  1.1361772678336572e-01  1.1381181100860420e-01  1.1395374707274199e-01  1.1405047199122569e-01  1.1410669195985877e-01  1.1412513418888058e-01  1.1410669195807460e-01  1.1405047199107758e-01  1.1395374707297104e-01  1.1381181100918358e-01  1.1361772678414782e-01  1.1336195194156243e-01  1.1303181694767794e-01  1.1261082196718838e-01  1.1207770402680581e-01  1.1140520853568893e-01  1.1055847469301625e-01  1.0949290934830039e-01  1.0815138041878036e-01  1.0646047122597414e-01  1.0432552997720709e-01  1.0162375885928253e-01  9.8195652072564435e-02  9.3830643046303647e-02  8.8255708535447022e-02  8.1097840040602623e-02  7.1894355202032217e-02  5.9997939249920917e-02  4.4706968007768411e-02  2.5778489234028396e-02  1.9777078705827964e-03  1.4858529263597649e-03  1.8365332053934817e-02  3.2679616641075285e-02  4.4979272934126291e-02  5.4941775540265629e-02  6.2948295849861044e-02  6.9308096686592977e-02  7.4356615196427139e-02  7.8358495169029888e-02  8.1534320421483952e-02  8.4056809476324421e-02  8.6062926025371370e-02  8.7660059160487358e-02  8.8932675548880485e-02  8.9947167868213246e-02  9.0755792726866388e-02  9.1399700963298525e-02  9.1911297774672718e-02  9.2316069515169463e-02  9.2633997771267310e-02  9.2880651054211144e-02  9.3068023509613157e-02  9.3205173060637275e-02  9.3298698216232684e-02  9.3353082402815590e-02  9.3370926368794321e-02  9.3353082400979281e-02  9.3298698216079431e-02  9.3205173060846774e-02  9.3068023510197037e-02  9.2880651055008687e-02  9.2633997772192000e-02  9.2316069516158797e-02  9.1911297775695108e-02  9.1399700964346284e-02  9.0755792727919962e-02  8.9947167869264447e-02  8.8932675549913673e-02  8.7660059161486628e-02  8.6062926026331088e-02  8.4056809477268776e-02  8.1534320422407033e-02  7.8358495169949360e-02  7.4356615197322451e-02  6.9308096687499973e-02  6.2948295850793548e-02  5.4941775541286798e-02  4.4979272934466297e-02  3.2679616640862059e-02  1.8365332053926542e-02  1.4858529267396156e-03  1.0535380846980623e-03  1.3511562611471387e-02  2.4370742061829178e-02  3.4044846256865498e-02  4.2202287797557740e-02  4.8945431616866507e-02  5.4443810462968860e-02  5.8889115146256374e-02  6.2468530860895218e-02  6.5343083910735719e-02  6.7649004997241274e-02  6.9497611920429803e-02  7.0979217227535266e-02  7.2166399190287819e-02  7.3117282645242226e-02  7.3878275925298498e-02  7.4486357944225257e-02  7.4970929490843163e-02  7.5355298149973354e-02  7.5657857680040713e-02  7.5893017438632249e-02  7.6071928071597059e-02  7.6203040768901414e-02  7.6292529329147096e-02  7.6344597290010530e-02  7.6361686371397314e-02  7.6344597288117363e-02  7.6292529328926342e-02  7.6203040769085545e-02  7.6071928072187225e-02  7.5893017439437979e-02  7.5657857680981766e-02  7.5355298150994399e-02  7.4970929491894531e-02  7.4486357945302617e-02  7.3878275926371570e-02  7.3117282646334963e-02  7.2166399191372022e-02  7.0979217228582539e-02  6.9497611921446087e-02  6.7649004998251910e-02  6.5343083911710828e-02  6.2468530861876218e-02  5.8889115147240510e-02  5.4443810463973202e-02  4.8945431618036064e-02  4.2202287797895220e-02  3.4044846256603867e-02  2.4370742061841456e-02  1.3511562611429334e-02  1.0535380850878384e-03  7.9655406058293590e-04  1.0129501972338223e-02  1.8423658793983822e-02  2.6008794271874480e-02  3.2577773490058214e-02  3.8157570527305500e-02  4.2807508562824531e-02  4.6640951304447648e-02  4.9776003179763294e-02  5.2327248499043473e-02  5.4396178759727166e-02  5.6070099170388382e-02  5.7422112608811839e-02  5.8512617860620571e-02  5.9391007406174215e-02  6.0097404447701765e-02  6.0664230493965729e-02  6.1117563176920138e-02  6.1478275185220595e-02  6.1762970921491196e-02  6.1984744579301886e-02  6.2153784530408943e-02  6.2277846785572716e-02  6.2362616890004260e-02  6.2411975829939223e-02  6.2428181762761874e-02  6.2411975827938074e-02  6.2362616889713715e-02  6.2277846785709585e-02  6.2153784530988646e-02  6.1984744580105874e-02  6.1762970922434809e-02  6.1478275186270706e-02  6.1117563178004049e-02  6.0664230495076639e-02  6.0097404448822923e-02  5.9391007407310098e-02  5.8512617861746441e-02  5.7422112609915615e-02  5.6070099171485227e-02  5.4396178760806456e-02  5.2327248500137126e-02  4.9776003180834784e-02  4.6640951305578715e-02  4.2807508564173563e-02  3.8157570527641488e-02  3.2577773489697627e-02  2.6008794271864689e-02  1.8423658794000139e-02  1.0129501972332589e-02  7.9655406094874420e-04  6.0016587785499762e-04  7.7013324242766901e-03  1.4080150815019914e-02  2.0017784918307614e-02  2.5273440253457340e-02  2.9830880408370744e-02  3.3706573429568197e-02  3.6957865153970357e-02  3.9658446412838763e-02  4.1885329069907502e-02  4.3711956696949404e-02  4.5204349437926408e-02  4.6419949156763965e-02  4.7407590081768272e-02  4.8208162132350428e-02  4.8855521335593323e-02  4.9377460825042400e-02  4.9796630912316169e-02  5.0131361103828237e-02  5.0396367170136104e-02  5.0603343107491157e-02  5.0761445508456800e-02  5.0877680723749659e-02  5.0957205428264880e-02  5.1003550072455481e-02  5.1018772891674821e-02  5.1003550070351469e-02  5.0957205427876628e-02  5.0877680723831302e-02  5.0761445509003848e-02  5.0603343108283350e-02  5.0396367171087177e-02  5.0131361104889846e-02  4.9796630913429264e-02  4.9377460826185340e-02  4.8855521336765552e-02  4.8208162133532857e-02  4.7407590082938739e-02  4.6419949157944340e-02  4.5204349439117025e-02  4.3711956698163294e-02  4.1885329071164955e-02  3.9658446414088250e-02  3.6957865155530872e-02  3.3706573429930616e-02  2.9830880407905692e-02  2.5273440253407956e-02  2.0017784918340401e-02  1.4080150815094152e-02  7.7013324242546375e-03  6.0016587821550070e-04  4.6048237279599152e-04  5.9119153045811392e-03  1.0849059014341600e-02  1.5504914649411490e-02  1.9692504504598796e-02  2.3387822928158424e-02  2.6583620069099409e-02  2.9307770888322024e-02  3.1603210969129998e-02  3.3520563548287995e-02  3.5111237859368170e-02  3.6423903184605776e-02  3.7502524267416452e-02  3.8385646934242283e-02  3.9106354478581247e-02  3.9692606193792265e-02  4.0167748773134580e-02  4.0551082668404834e-02  4.0858415450031410e-02  4.1102567204201308e-02  4.1293812211359388e-02  4.1440252110078568e-02  4.1548121522936389e-02  4.1622029765450624e-02  4.1665143054022413e-02  4.1679311341424080e-02  4.1665143051787396e-02  4.1622029764952100e-02  4.1548121522930463e-02  4.1440252110564742e-02  4.1293812212126191e-02  4.1102567205149210e-02  4.0858415451097502e-02  4.0551082669549487e-02  4.0167748774315455e-02  3.9692606195011047e-02  3.9106354479820971e-02  3.8385646935513155e-02  3.7502524268709370e-02  3.6423903185941117e-02  3.5111237860749482e-02  3.3520563549738522e-02  3.1603210970934138e-02  2.9307770888718339e-02  2.6583620068498754e-02  2.3387822928106098e-02  1.9692504504644881e-02  1.5504914649506884e-02  1.0849059014445042e-02  5.9119153045592062e-03  4.6048237315179290e-04  3.5497524464901984e-04  4.5728781778140168e-03  8.4139827553342591e-03  1.2071673556154766e-02  1.5403703417027736e-02  1.8385244529471444e-02  2.1001385027922891e-02  2.3262772565030645e-02  2.5193588297527027e-02  2.6826002101415527e-02  2.8195246229804082e-02  2.9336390477633610e-02  3.0282390807844152e-02  3.1063054191895416e-02  3.1704626923401348e-02  3.2229766350908330e-02  3.2657732513746845e-02  3.3004689243292883e-02  3.3284045237931853e-02  3.3506793214475555e-02  3.3681823450718108e-02  3.3816199498789064e-02  3.3915390756873401e-02  3.3983460498074117e-02  3.4023209937096704e-02  3.4036279677740200e-02  3.4023209934728835e-02  3.3983460497449929e-02  3.3915390756765584e-02  3.3816199499181208e-02  3.3681823451424800e-02  3.3506793215395146e-02  3.3284045239008853e-02  3.3004689244473071e-02  3.2657732515003951e-02  3.2229766352204509e-02  3.1704626924746439e-02  3.1063054193298353e-02  3.0282390809302479e-02  2.9336390479150209e-02  2.8195246231375037e-02  2.6826002103470879e-02  2.5193588297967029e-02  2.3262772564292683e-02  2.1001385027837039e-02  1.8385244529533992e-02  1.5403703417194730e-02  1.2071673556285505e-02  8.4139827554792074e-03  4.5728781777874252e-03  3.5497524500903628e-04  2.7562587918320160e-04  3.5576766681718569e-03  6.5593308958874436e-03  9.4392848828257943e-03  1.2089222593002300e-02  1.4487922120410689e-02  1.6618431600816178e-02  1.8482765980916832e-02  2.0093541018981451e-02  2.1470714174765669e-02  2.2637932066526867e-02  2.3620027222456895e-02  2.4441275611798683e-02  2.5124337695480649e-02  2.5689689293947306e-02  2.6155392562072798e-02  2.6537084357299838e-02  2.6848093209008855e-02  2.7099623139501039e-02  2.7300963483817171e-02  2.7459698824131497e-02  2.7581903432921009e-02  2.7672311387966581e-02  2.7734457789675943e-02  2.7770789051814890e-02  2.7782741610343227e-02  2.7770789049329753e-02  2.7734457788919906e-02  2.7672311387747485e-02  2.7581903433227542e-02  2.7459698824790234e-02  2.7300963484722933e-02  2.7099623140596496e-02  2.6848093210234864e-02  2.6537084358625524e-02  2.6155392563481469e-02  2.5689689295413532e-02  2.5124337697053637e-02  2.4441275613464087e-02  2.3620027224181238e-02  2.2637932068812906e-02  2.1470714175204259e-02  2.0093541018039694e-02  1.8482765980800477e-02  1.6618431600880439e-02  1.4487922120653109e-02  1.2089222593204772e-02  9.4392848830315377e-03  6.5593308960492846e-03  3.5576766681544624e-03  2.7562587954363003e-04  2.1493660303072246e-04  2.7807484178969657e-03  5.1349236070746592e-03  7.4072019802322812e-03  9.5150557255621673e-03  1.1441275513409900e-02  1.3169972889006266e-02  1.4698910312967285e-02  1.6033969118380856e-02  1.7187142476647096e-02  1.8174028503754779e-02  1.9011947200368865e-02  1.9718527875342978e-02  2.0310754607139690e-02  2.0804376156858675e-02  2.1213589091824681e-02  2.1550911913809020e-02  2.1827184270872334e-02  2.2051641635086397e-02  2.2232029934941631e-02  2.2374735763157828e-02  2.2484916064343129e-02  2.2566617090787274e-02  2.2622876429990675e-02  2.2655804539089937e-02  2.2666643854336296e-02  2.2655804536554570e-02  2.2622876429109338e-02  2.2566617090444389e-02  2.2484916064556004e-02  2.2374735763756426e-02  2.2232029935832544e-02  2.2051641636194604e-02  2.1827184272128243e-02  2.1550911915198107e-02  2.1213589093338411e-02  2.0804376158493867e-02  2.0310754608922146e-02  1.9718527877251313e-02  1.9011947202860140e-02  1.8174028504211910e-02  1.7187142475500846e-02  1.6033969118130334e-02  1.4698910312985626e-02  1.3169972889279609e-02  1.1441275513745332e-02  9.5150557258454546e-03  7.4072019804857833e-03  5.1349236072643391e-03  2.7807484178947145e-03  2.1493660339191593e-04  1.6826823890553938e-04  2.1815033155022476e-03  4.0334001309435237e-03  5.8295536939025339e-03  7.5068561589773939e-03  9.0518713383430736e-03  1.0450761268910251e-02  1.1699555842904129e-02  1.2800305670529156e-02  1.3759945764566210e-02  1.4588582632645763e-02  1.5298141134285168e-02  1.5901271251656603e-02  1.6410552347039351e-02  1.6837952600146068e-02  1.7194495267595988e-02  1.7490080244923975e-02  1.7733415500552737e-02  1.7932021270756281e-02  1.8092278510099265e-02  1.8219500664297117e-02  1.8318013965726267e-02  1.8391236145047660e-02  1.8441746881602088e-02  1.8471345738932578e-02  1.8481094974220468e-02  1.8471345736335583e-02  1.8441746880594401e-02  1.8391236144562763e-02  1.8318013965834549e-02  1.8219500664823370e-02  1.8092278510984945e-02  1.7932021271863670e-02  1.7733415501862977e-02  1.7490080246380723e-02  1.7194495269247250e-02  1.6837952602011954e-02  1.6410552349053819e-02  1.5901271254331543e-02  1.5298141134743641e-02  1.4588582631266243e-02  1.3759945764193798e-02  1.2800305670446448e-02  1.1699555843112589e-02  1.0450761269317724e-02  9.0518713387639990e-03  7.5068561593310164e-03  5.8295536942053090e-03  4.0334001311660705e-03  2.1815033155332900e-03  1.6826823926476564e-04  1.3211601316275891e-04  1.7163626274292109e-03  3.1766154336198829e-03  4.5985800548208116e-03  5.9338247685563365e-03  7.1720411617108033e-03  8.3016816710303719e-03  9.3183223575605042e-03  1.0221953649161970e-02  1.1016356720051884e-02  1.1707954351425142e-02  1.2304858556236451e-02  1.2816053607210866e-02  1.3250763436846068e-02  1.3617990743786636e-02  1.3926205534113176e-02  1.4183153392584167e-02  1.4395754037345894e-02  1.4570064015982275e-02  1.4711282003563494e-02  1.4823779877818017e-02  1.4911146962949366e-02  1.4976238317236048e-02  1.5021220667748353e-02  1.5047611653219616e-02  1.5056309534983370e-02  1.5047611650528477e-02  1.5021220666610807e-02  1.4976238316629416e-02  1.4911146962957257e-02  1.4823779878291836e-02  1.4711282004411460e-02  1.4570064017125203e-02  1.4395754038727867e-02  1.4183153394199345e-02  1.3926205535955364e-02  1.3617990745832816e-02  1.3250763439587629e-02  1.2816053607611351e-02  1.2304858554617583e-02  1.1707954350856673e-02  1.1016356719894975e-02  1.0221953649273571e-02  9.3183223579188790e-03  8.3016816715467470e-03  7.1720411621992285e-03  5.9338247689751005e-03  4.5985800551599171e-03  3.1766154338858676e-03  1.7163626274884398e-03  1.3211601352278694e-04  1.0396277010556027e-04  1.3533240441639706e-03  2.5068047781614056e-03  3.6337954209500608e-03  4.6969925368955737e-03  5.6885781913746433e-03  6.5991448684351176e-03  7.4244516430175449e-03  8.1634659758391265e-03  8.8180487125218802e-03  9.3921862367082436e-03  9.8913315277611800e-03  1.0321807158971512e-02  1.0690318518689092e-02  1.1003578521488951e-02  1.1268036508747782e-02  1.1489695805182280e-02  1.1674002050975692e-02  1.1825784799696367e-02  1.1949236914450575e-02  1.2047918916194668e-02  1.2124778129341882e-02  1.2182174897985629e-02  1.2221910188876348e-02  1.2245250543026536e-02  1.2252947613046229e-02  1.2245250540267288e-02  1.2221910187622720e-02  1.2182174897283730e-02  1.2124778129283609e-02  1.2047918916631737e-02  1.1949236915300731e-02  1.1825784800891949e-02  1.1674002052473962e-02  1.1489695806991336e-02  1.1268036510755636e-02  1.1003578524177066e-02  1.0690318518939508e-02  1.0321807157044897e-02  9.8913315269296264e-03  9.3921862363614810e-03  8.8180487125901642e-03  8.1634659761064404e-03  7.4244516435185851e-03  6.5991448690283150e-03  5.6885781918986156e-03  4.6969925373749272e-03  3.6337954213312732e-03  2.5068047784624872e-03  1.3533240442376443e-03  1.0396277046233176e-04  8.1927706534289113e-05  1.0685719272970219e-03  1.9807307239548344e-03  2.8744584852344857e-03  3.7209343508213645e-03  4.5142688261105074e-03  5.2469155293068427e-03  5.9150925586330247e-03  6.5173406660056585e-03  7.0543849542852380e-03  7.5286231935768168e-03  7.9436747179192999e-03  8.3039510189698781e-03  8.6142895787308382e-03  8.8796578024180773e-03  9.1049275010793278e-03  9.2947129765202415e-03  9.4532626210984769e-03  9.5843929173531402e-03  9.6914541738183490e-03  9.7773186162592642e-03  9.8443830094650190e-03  9.8945795765831637e-03  9.9293904354580582e-03  9.9498620215408163e-03  9.9566169966801895e-03  9.9498620187556605e-03  9.9293904341433356e-03  9.8945795758281670e-03  9.8443830093815077e-03  9.7773186166991554e-03  9.6914541747117142e-03  9.5843929186415402e-03  9.4532626227416885e-03  9.2947129784152586e-03  9.1049275037197661e-03  8.8796578024614228e-03  8.6142895764594902e-03  8.3039510177440583e-03  7.9436747172846357e-03  7.5286231934857863e-03  7.0543849544905191e-03  6.5173406664192956e-03  5.9150925592357066e-03  5.2469155299527202e-03  4.5142688266722446e-03  3.7209343513502019e-03  2.8744584856614714e-03  1.9807307242911817e-03  1.0685719273799822e-03  8.1927706891435541e-05  6.4599896535918498e-05  8.4416418904663295e-04  1.5656826146810941e-03  2.2743231021713677e-03  2.9477670355928520e-03  3.5815975468189414e-03  4.1698236979462022e-03  4.7092116280524699e-03  5.1982053888405735e-03  5.6368866575547830e-03  6.0266334770226184e-03  6.3698137488190643e-03  6.6694797345985476e-03  6.9290970689807971e-03  7.1523164461581856e-03  7.3427918446816211e-03  7.5040432400908554e-03  7.6393586450180014e-03  7.7517287982151540e-03  7.8438074846090521e-03  7.9178908533343705e-03  7.9759099421099818e-03  8.0194315702451519e-03  8.0496637471045886e-03  8.0674626526903749e-03  8.0733390425706819e-03  8.0674626499919154e-03  8.0496637457964735e-03  8.0194315694976231e-03  7.9759099420481615e-03  7.9178908538196525e-03  7.8438074855793558e-03  7.7517287996180266e-03  7.6393586467017136e-03  7.5040432425321664e-03  7.3427918445352911e-03  7.1523164435516795e-03  6.9290970673711889e-03  6.6694797335258285e-03  6.3698137484023976e-03  6.0266334770794593e-03  5.6368866578711679e-03  5.1982053893887357e-03  4.7092116287107810e-03  4.1698236986349229e-03  3.5815975474354539e-03  2.9477670361579508e-03  2.2743231026235151e-03  1.5656826150547449e-03  8.4416418913537295e-04  6.4599896907804438e-05  5.0907190813593657e-05  6.6644598791407042e-04  1.2366814400795270e-03  1.7978931979176097e-03  2.3327778039558458e-03  2.8380337255596733e-03  3.3089418086077104e-03  3.7428115130117559e-03  4.1381633234579976e-03  4.4947396102497815e-03  4.8132764796048463e-03  5.0952965950636217e-03  5.3428935115646323e-03  5.5585335230982011e-0