<?xml version="1.0"?>
<VTKFile type="UnstructuredGrid"  version="0.1"  >
<UnstructuredGrid>
<Piece  NumberOfPoints="5101" NumberOfCells="10000">
<Points>
<DataArray  type="Float64"  NumberOfComponents="3"  format="ascii">0 0 0  0.2 0 0  0.4 0 0  0.6 0 0  0.8 0 0  1 0 0  1.2 0 0  1.4 0 0  1.6 0 0  1.8 0 0  2 0 0  2.2 0 0  2.4 0 0  2.6 0 0  2.8 0 0  3 0 0  3.2 0 0  3.4 0 0  3.6 0 0  3.8 0 0  4 0 0  4.2 0 0  4.4 0 0  4.6 0 0  4.8 0 0  5 0 0  5.2 0 0  5.4 0 0  5.6 0 0  5.8 0 0  6 0 0  6.2 0 0  6.4 0 0  6.6 0 0  6.8 0 0  7 0 0  7.2 0 0  7.4 0 0  7.6 0 0  7.8 0 0  8 0 0  8.199999999999999 0 0  8.4 0 0  8.6 0 0  8.800000000000001 0 0  9 0 0  9.199999999999999 0 0  9.4 0 0  9.6 0 0  9.800000000000001 0 0  10 0 0  0 0.2 0  0.2 0.2 0  0.4 0.2 0  0.6 0.2 0  0.8 0.2 0  1 0.2 0  1.2 0.2 0  1.4 0.2 0  1.6 0.2 0  1.8 0.2 0  2 0.2 0  2.2 0.2 0  2.4 0.2 0  2.6 0.2 0  2.8 0.2 0  3 0.2 0  3.2 0.2 0  3.4 0.2 0  3.6 0.2 0  3.8 0.2 0  4 0.2 0  4.2 0.2 0  4.4 0.2 0  4.6 0.2 0  4.8 0.2 0  5 0.2 0  5.2 0.2 0  5.4 0.2 0  5.6 0.2 0  5.8 0.2 0  6 0.2 0  6.2 0.2 0  6.4 0.2 0  6.6 0.2 0  6.8 0.2 0  7 0.2 0  7.2 0.2 0  7.4 0.2 0  7.6 0.2 0  7.8 0.2 0  8 0.2 0  8.199999999999999 0.2 0  8.4 0.2 0  8.6 0.2 0  8.800000000000001 0.2 0  9 0.2 0  9.199999999999999 0.2 0  9.4 0.2 0  9.6 0.2 0  9.800000000000001 0.2 0  10 0.2 0  0 0.4 0  0.2 0.4 0  0.4 0.4 0  0.6 0.4 0  0.8 0.4 0  1 0.4 0  1.2 0.4 0  1.4 0.4 0  1.6 0.4 0  1.8 0.4 0  2 0.4 0  2.2 0.4 0  2.4 0.4 0  2.6 0.4 0  2.8 0.4 0  3 0.4 0  3.2 0.4 0  3.4 0.4 0  3.6 0.4 0  3.8 0.4 0  4 0.4 0  4.2 0.4 0  4.4 0.4 0  4.6 0.4 0  4.8 0.4 0  5 0.4 0  5.2 0.4 0  5.4 0.4 0  5.6 0.4 0  5.8 0.4 0  6 0.4 0  6.2 0.4 0  6.4 0.4 0  6.6 0.4 0  6.8 0.4 0  7 0.4 0  7.2 0.4 0  7.4 0.4 0  7.6 0.4 0  7.8 0.4 0  8 0.4 0  8.199999999999999 0.4 0  8.4 0.4 0  8.6 0.4 0  8.800000000000001 0.4 0  9 0.4 0  9.199999999999999 0.4 0  9.4 0.4 0  9.6 0.4 0  9.800000000000001 0.4 0  10 0.4 0  0 0.6 0  0.2 0.6 0  0.4 0.6 0  0.6 0.6 0  0.8 0.6 0  1 0.6 0  1.2 0.6 0  1.4 0.6 0  1.6 0.6 0  1.8 0.6 0  2 0.6 0  2.2 0.6 0  2.4 0.6 0  2.6 0.6 0  2.8 0.6 0  3 0.6 0  3.2 0.6 0  3.4 0.6 0  3.6 0.6 0  3.8 0.6 0  4 0.6 0  4.2 0.6 0  4.4 0.6 0  4.6 0.6 0  4.8 0.6 0  5 0.6 0  5.2 0.6 0  5.4 0.6 0  5.6 0.6 0  5.8 0.6 0  6 0.6 0  6.2 0.6 0  6.4 0.6 0  6.6 0.6 0  6.8 0.6 0  7 0.6 0  7.2 0.6 0  7.4 0.6 0  7.6 0.6 0  7.8 0.6 0  8 0.6 0  8.199999999999999 0.6 0  8.4 0.6 0  8.6 0.6 0  8.800000000000001 0.6 0  9 0.6 0  9.199999999999999 0.6 0  9.4 0.6 0  9.6 0.6 0  9.800000000000001 0.6 0  10 0.6 0  0 0.8 0  0.2 0.8 0  0.4 0.8 0  0.6 0.8 0  0.8 0.8 0  1 0.8 0  1.2 0.8 0  1.4 0.8 0  1.6 0.8 0  1.8 0.8 0  2 0.8 0  2.2 0.8 0  2.4 0.8 0  2.6 0.8 0  2.8 0.8 0  3 0.8 0  3.2 0.8 0  3.4 0.8 0  3.6 0.8 0  3.8 0.8 0  4 0.8 0  4.2 0.8 0  4.4 0.8 0  4.6 0.8 0  4.8 0.8 0  5 0.8 0  5.2 0.8 0  5.4 0.8 0  5.6 0.8 0  5.8 0.8 0  6 0.8 0  6.2 0.8 0  6.4 0.8 0  6.6 0.8 0  6.8 0.8 0  7 0.8 0  7.2 0.8 0  7.4 0.8 0  7.6 0.8 0  7.8 0.8 0  8 0.8 0  8.199999999999999 0.8 0  8.4 0.8 0  8.6 0.8 0  8.800000000000001 0.8 0  9 0.8 0  9.199999999999999 0.8 0  9.4 0.8 0  9.6 0.8 0  9.800000000000001 0.8 0  10 0.8 0  0 1 0  0.2 1 0  0.4 1 0  0.6 1 0  0.8 1 0  1 1 0  1.2 1 0  1.4 1 0  1.6 1 0  1.8 1 0  2 1 0  2.2 1 0  2.4 1 0  2.6 1 0  2.8 1 0  3 1 0  3.2 1 0  3.4 1 0  3.6 1 0  3.8 1 0  4 1 0  4.2 1 0  4.4 1 0  4.6 1 0  4.8 1 0  5 1 0  5.2 1 0  5.4 1 0  5.6 1 0  5.8 1 0  6 1 0  6.2 1 0  6.4 1 0  6.6 1 0  6.8 1 0  7 1 0  7.2 1 0  7.4 1 0  7.6 1 0  7.8 1 0  8 1 0  8.199999999999999 1 0  8.4 1 0  8.6 1 0  8.800000000000001 1 0  9 1 0  9.199999999999999 1 0  9.4 1 0  9.6 1 0  9.800000000000001 1 0  10 1 0  0 1.2 0  0.2 1.2 0  0.4 1.2 0  0.6 1.2 0  0.8 1.2 0  1 1.2 0  1.2 1.2 0  1.4 1.2 0  1.6 1.2 0  1.8 1.2 0  2 1.2 0  2.2 1.2 0  2.4 1.2 0  2.6 1.2 0  2.8 1.2 0  3 1.2 0  3.2 1.2 0  3.4 1.2 0  3.6 1.2 0  3.8 1.2 0  4 1.2 0  4.2 1.2 0  4.4 1.2 0  4.6 1.2 0  4.8 1.2 0  5 1.2 0  5.2 1.2 0  5.4 1.2 0  5.6 1.2 0  5.8 1.2 0  6 1.2 0  6.2 1.2 0  6.4 1.2 0  6.6 1.2 0  6.8 1.2 0  7 1.2 0  7.2 1.2 0  7.4 1.2 0  7.6 1.2 0  7.8 1.2 0  8 1.2 0  8.199999999999999 1.2 0  8.4 1.2 0  8.6 1.2 0  8.800000000000001 1.2 0  9 1.2 0  9.199999999999999 1.2 0  9.4 1.2 0  9.6 1.2 0  9.800000000000001 1.2 0  10 1.2 0  0 1.4 0  0.2 1.4 0  0.4 1.4 0  0.6 1.4 0  0.8 1.4 0  1 1.4 0  1.2 1.4 0  1.4 1.4 0  1.6 1.4 0  1.8 1.4 0  2 1.4 0  2.2 1.4 0  2.4 1.4 0  2.6 1.4 0  2.8 1.4 0  3 1.4 0  3.2 1.4 0  3.4 1.4 0  3.6 1.4 0  3.8 1.4 0  4 1.4 0  4.2 1.4 0  4.4 1.4 0  4.6 1.4 0  4.8 1.4 0  5 1.4 0  5.2 1.4 0  5.4 1.4 0  5.6 1.4 0  5.8 1.4 0  6 1.4 0  6.2 1.4 0  6.4 1.4 0  6.6 1.4 0  6.8 1.4 0  7 1.4 0  7.2 1.4 0  7.4 1.4 0  7.6 1.4 0  7.8 1.4 0  8 1.4 0  8.199999999999999 1.4 0  8.4 1.4 0  8.6 1.4 0  8.800000000000001 1.4 0  9 1.4 0  9.199999999999999 1.4 0  9.4 1.4 0  9.6 1.4 0  9.800000000000001 1.4 0  10 1.4 0  0 1.6 0  0.2 1.6 0  0.4 1.6 0  0.6 1.6 0  0.8 1.6 0  1 1.6 0  1.2 1.6 0  1.4 1.6 0  1.6 1.6 0  1.8 1.6 0  2 1.6 0  2.2 1.6 0  2.4 1.6 0  2.6 1.6 0  2.8 1.6 0  3 1.6 0  3.2 1.6 0  3.4 1.6 0  3.6 1.6 0  3.8 1.6 0  4 1.6 0  4.2 1.6 0  4.4 1.6 0  4.6 1.6 0  4.8 1.6 0  5 1.6 0  5.2 1.6 0  5.4 1.6 0  5.6 1.6 0  5.8 1.6 0  6 1.6 0  6.2 1.6 0  6.4 1.6 0  6.6 1.6 0  6.8 1.6 0  7 1.6 0  7.2 1.6 0  7.4 1.6 0  7.6 1.6 0  7.8 1.6 0  8 1.6 0  8.199999999999999 1.6 0  8.4 1.6 0  8.6 1.6 0  8.800000000000001 1.6 0  9 1.6 0  9.199999999999999 1.6 0  9.4 1.6 0  9.6 1.6 0  9.800000000000001 1.6 0  10 1.6 0  0 1.8 0  0.2 1.8 0  0.4 1.8 0  0.6 1.8 0  0.8 1.8 0  1 1.8 0  1.2 1.8 0  1.4 1.8 0  1.6 1.8 0  1.8 1.8 0  2 1.8 0  2.2 1.8 0  2.4 1.8 0  2.6 1.8 0  2.8 1.8 0  3 1.8 0  3.2 1.8 0  3.4 1.8 0  3.6 1.8 0  3.8 1.8 0  4 1.8 0  4.2 1.8 0  4.4 1.8 0  4.6 1.8 0  4.8 1.8 0  5 1.8 0  5.2 1.8 0  5.4 1.8 0  5.6 1.8 0  5.8 1.8 0  6 1.8 0  6.2 1.8 0  6.4 1.8 0  6.6 1.8 0  6.8 1.8 0  7 1.8 0  7.2 1.8 0  7.4 1.8 0  7.6 1.8 0  7.8 1.8 0  8 1.8 0  8.199999999999999 1.8 0  8.4 1.8 0  8.6 1.8 0  8.800000000000001 1.8 0  9 1.8 0  9.199999999999999 1.8 0  9.4 1.8 0  9.6 1.8 0  9.800000000000001 1.8 0  10 1.8 0  0 2 0  0.2 2 0  0.4 2 0  0.6 2 0  0.8 2 0  1 2 0  1.2 2 0  1.4 2 0  1.6 2 0  1.8 2 0  2 2 0  2.2 2 0  2.4 2 0  2.6 2 0  2.8 2 0  3 2 0  3.2 2 0  3.4 2 0  3.6 2 0  3.8 2 0  4 2 0  4.2 2 0  4.4 2 0  4.6 2 0  4.8 2 0  5 2 0  5.2 2 0  5.4 2 0  5.6 2 0  5.8 2 0  6 2 0  6.2 2 0  6.4 2 0  6.6 2 0  6.8 2 0  7 2 0  7.2 2 0  7.4 2 0  7.6 2 0  7.8 2 0  8 2 0  8.199999999999999 2 0  8.4 2 0  8.6 2 0  8.800000000000001 2 0  9 2 0  9.199999999999999 2 0  9.4 2 0  9.6 2 0  9.800000000000001 2 0  10 2 0  0 2.2 0  0.2 2.2 0  0.4 2.2 0  0.6 2.2 0  0.8 2.2 0  1 2.2 0  1.2 2.2 0  1.4 2.2 0  1.6 2.2 0  1.8 2.2 0  2 2.2 0  2.2 2.2 0  2.4 2.2 0  2.6 2.2 0  2.8 2.2 0  3 2.2 0  3.2 2.2 0  3.4 2.2 0  3.6 2.2 0  3.8 2.2 0  4 2.2 0  4.2 2.2 0  4.4 2.2 0  4.6 2.2 0  4.8 2.2 0  5 2.2 0  5.2 2.2 0  5.4 2.2 0  5.6 2.2 0  5.8 2.2 0  6 2.2 0  6.2 2.2 0  6.4 2.2 0  6.6 2.2 0  6.8 2.2 0  7 2.2 0  7.2 2.2 0  7.4 2.2 0  7.6 2.2 0  7.8 2.2 0  8 2.2 0  8.199999999999999 2.2 0  8.4 2.2 0  8.6 2.2 0  8.800000000000001 2.2 0  9 2.2 0  9.199999999999999 2.2 0  9.4 2.2 0  9.6 2.2 0  9.800000000000001 2.2 0  10 2.2 0  0 2.4 0  0.2 2.4 0  0.4 2.4 0  0.6 2.4 0  0.8 2.4 0  1 2.4 0  1.2 2.4 0  1.4 2.4 0  1.6 2.4 0  1.8 2.4 0  2 2.4 0  2.2 2.4 0  2.4 2.4 0  2.6 2.4 0  2.8 2.4 0  3 2.4 0  3.2 2.4 0  3.4 2.4 0  3.6 2.4 0  3.8 2.4 0  4 2.4 0  4.2 2.4 0  4.4 2.4 0  4.6 2.4 0  4.8 2.4 0  5 2.4 0  5.2 2.4 0  5.4 2.4 0  5.6 2.4 0  5.8 2.4 0  6 2.4 0  6.2 2.4 0  6.4 2.4 0  6.6 2.4 0  6.8 2.4 0  7 2.4 0  7.2 2.4 0  7.4 2.4 0  7.6 2.4 0  7.8 2.4 0  8 2.4 0  8.199999999999999 2.4 0  8.4 2.4 0  8.6 2.4 0  8.800000000000001 2.4 0  9 2.4 0  9.199999999999999 2.4 0  9.4 2.4 0  9.6 2.4 0  9.800000000000001 2.4 0  10 2.4 0  0 2.6 0  0.2 2.6 0  0.4 2.6 0  0.6 2.6 0  0.8 2.6 0  1 2.6 0  1.2 2.6 0  1.4 2.6 0  1.6 2.6 0  1.8 2.6 0  2 2.6 0  2.2 2.6 0  2.4 2.6 0  2.6 2.6 0  2.8 2.6 0  3 2.6 0  3.2 2.6 0  3.4 2.6 0  3.6 2.6 0  3.8 2.6 0  4 2.6 0  4.2 2.6 0  4.4 2.6 0  4.6 2.6 0  4.8 2.6 0  5 2.6 0  5.2 2.6 0  5.4 2.6 0  5.6 2.6 0  5.8 2.6 0  6 2.6 0  6.2 2.6 0  6.4 2.6 0  6.6 2.6 0  6.8 2.6 0  7 2.6 0  7.2 2.6 0  7.4 2.6 0  7.6 2.6 0  7.8 2.6 0  8 2.6 0  8.199999999999999 2.6 0  8.4 2.6 0  8.6 2.6 0  8.800000000000001 2.6 0  9 2.6 0  9.199999999999999 2.6 0  9.4 2.6 0  9.6 2.6 0  9.800000000000001 2.6 0  10 2.6 0  0 2.8 0  0.2 2.8 0  0.4 2.8 0  0.6 2.8 0  0.8 2.8 0  1 2.8 0  1.2 2.8 0  1.4 2.8 0  1.6 2.8 0  1.8 2.8 0  2 2.8 0  2.2 2.8 0  2.4 2.8 0  2.6 2.8 0  2.8 2.8 0  3 2.8 0  3.2 2.8 0  3.4 2.8 0  3.6 2.8 0  3.8 2.8 0  4 2.8 0  4.2 2.8 0  4.4 2.8 0  4.6 2.8 0  4.8 2.8 0  5 2.8 0  5.2 2.8 0  5.4 2.8 0  5.6 2.8 0  5.8 2.8 0  6 2.8 0  6.2 2.8 0  6.4 2.8 0  6.6 2.8 0  6.8 2.8 0  7 2.8 0  7.2 2.8 0  7.4 2.8 0  7.6 2.8 0  7.8 2.8 0  8 2.8 0  8.199999999999999 2.8 0  8.4 2.8 0  8.6 2.8 0  8.800000000000001 2.8 0  9 2.8 0  9.199999999999999 2.8 0  9.4 2.8 0  9.6 2.8 0  9.800000000000001 2.8 0  10 2.8 0  0 3 0  0.2 3 0  0.4 3 0  0.6 3 0  0.8 3 0  1 3 0  1.2 3 0  1.4 3 0  1.6 3 0  1.8 3 0  2 3 0  2.2 3 0  2.4 3 0  2.6 3 0  2.8 3 0  3 3 0  3.2 3 0  3.4 3 0  3.6 3 0  3.8 3 0  4 3 0  4.2 3 0  4.4 3 0  4.6 3 0  4.8 3 0  5 3 0  5.2 3 0  5.4 3 0  5.6 3 0  5.8 3 0  6 3 0  6.2 3 0  6.4 3 0  6.6 3 0  6.8 3 0  7 3 0  7.2 3 0  7.4 3 0  7.6 3 0  7.8 3 0  8 3 0  8.199999999999999 3 0  8.4 3 0  8.6 3 0  8.800000000000001 3 0  9 3 0  9.199999999999999 3 0  9.4 3 0  9.6 3 0  9.800000000000001 3 0  10 3 0  0 3.2 0  0.2 3.2 0  0.4 3.2 0  0.6 3.2 0  0.8 3.2 0  1 3.2 0  1.2 3.2 0  1.4 3.2 0  1.6 3.2 0  1.8 3.2 0  2 3.2 0  2.2 3.2 0  2.4 3.2 0  2.6 3.2 0  2.8 3.2 0  3 3.2 0  3.2 3.2 0  3.4 3.2 0  3.6 3.2 0  3.8 3.2 0  4 3.2 0  4.2 3.2 0  4.4 3.2 0  4.6 3.2 0  4.8 3.2 0  5 3.2 0  5.2 3.2 0  5.4 3.2 0  5.6 3.2 0  5.8 3.2 0  6 3.2 0  6.2 3.2 0  6.4 3.2 0  6.6 3.2 0  6.8 3.2 0  7 3.2 0  7.2 3.2 0  7.4 3.2 0  7.6 3.2 0  7.8 3.2 0  8 3.2 0  8.199999999999999 3.2 0  8.4 3.2 0  8.6 3.2 0  8.800000000000001 3.2 0  9 3.2 0  9.199999999999999 3.2 0  9.4 3.2 0  9.6 3.2 0  9.800000000000001 3.2 0  10 3.2 0  0 3.4 0  0.2 3.4 0  0.4 3.4 0  0.6 3.4 0  0.8 3.4 0  1 
[...]
<PointData  Scalars="f_9"> 
<DataArray  type="Float64"  Name="f_9"  format="ascii">-7.5342463519159509e-03  -3.6817808109267419e-03  -1.9777078705063888e-03  -1.4858529266906903e-03  -1.0535380850270385e-03  -7.9655406089389951e-04  -6.0016587815732230e-04  -4.6048237309693910e-04  -3.5497524495112259e-04  -2.7562587948665542e-04  -2.1493660333780836e-04  -1.6826823920871253e-04  -1.3211601346608398e-04  -1.0396277040738255e-04  -8.1927706832802754e-05  -6.4599896851864430e-05  -5.0907191126141910e-05  -4.0027801796049884e-05  -3.1326047651392941e-05  -2.4305547246195925e-05  -1.8574428764726274e-05  -1.3819058834897743e-05  -9.7838353242853697e-06  -6.2552956308802041e-06  -3.0492557027748727e-06  -3.3831546522183409e-13  3.0492551888134547e-06  6.2552954074440791e-06  9.7838350567383395e-06  1.3819058543957406e-05  1.8574428473245266e-05  2.4305546949730781e-05  3.1326047356039200e-05  4.0027801493718001e-05  5.0907190814730613e-05  6.4599896536513752e-05  8.1927706534315296e-05  1.0396277010598186e-04  1.3211601316420513e-04  1.6826823890671449e-04  2.1493660303110760e-04  2.7562587918235359e-04  3.5497524464895067e-04  4.6048237279411720e-04  6.0016587785353482e-04  7.9655406058581945e-04  1.0535380846923375e-03  1.4858529263680148e-03  1.9777078701185562e-03  3.6817808109959149e-03  7.5342463519477536e-03  -6.0317300171326492e-02  -3.8099561726281123e-02  -2.5778489233978904e-02  -1.8365332053865924e-02  -1.3511562611376191e-02  -1.0129501972274364e-02  -7.7013324241989164e-03  -5.9119153044989480e-03  -4.5728781777315220e-03  -3.5576766681000437e-03  -2.7807484178390476e-03  -2.1815033154772229e-03  -1.7163626274325191e-03  -1.3533240441800502e-03  -1.0685719273250676e-03  -8.4416418907793647e-04  -6.6644598797138482e-04  -5.2492806031214181e-04  -4.1147996492800942e-04  -3.1973931060876845e-04  -2.4467212512848356e-04  -1.8224024826810341e-04  -1.2914503511524185e-04  -8.2625415750473845e-05  -4.0294156263513614e-05  -1.1306748747304453e-13  4.0294156124466481e-05  8.2625415579275761e-05  1.2914503498869800e-04  1.8224024818034698e-04  2.4467212505864826e-04  3.1973931054149295e-04  4.1147996485998837e-04  5.2492806024326819e-04  6.6644598791911565e-04  8.4416418905410343e-04  1.0685719273049845e-03  1.3533240441712918e-03  1.7163626274342911e-03  2.1815033155062873e-03  2.7807484179032875e-03  3.5576766681795283e-03  4.5728781778204101e-03  5.9119153045907157e-03  7.7013324242831268e-03  1.0129501972342065e-02  1.3511562611484661e-02  1.8365332053942168e-02  2.5778489234196237e-02  3.8099561726069375e-02  6.0317300170985980e-02  -8.9762295229963276e-02  -6.2382411421746241e-02  -4.4706968007770242e-02  -3.2679616640824756e-02  -2.4370742061810995e-02  -1.8423658793963373e-02  -1.4080150815058928e-02  -1.0849059014411572e-02  -8.4139827554409446e-03  -6.5593308960104606e-03  -5.1349236072279281e-03  -4.0334001311317820e-03  -3.1766154338496522e-03  -2.5068047784285452e-03  -1.9807307242564053e-03  -1.5656826150180956e-03  -1.2366814404350689e-03  -9.7448710914177191e-04  -7.6415311419404457e-04  -5.9396159123648994e-04  -4.5462675722709062e-04  -3.3868972598551631e-04  -2.4005052869480013e-04  -1.5359828984658764e-04  -7.4910617276581127e-05  -1.6967383851011371e-13  7.4910616878084394e-05  1.5359828946593100e-04  2.4005052829628810e-04  3.3868972557689445e-04  4.5462675682702951e-04  5.9396159086266321e-04  7.6415311383582634e-04  9.7448710879221884e-04  1.2366814400931658e-03  1.5656826146928310e-03  1.9807307239657524e-03  2.5068047781712467e-03  3.1766154336342061e-03  4.0334001309571873e-03  5.1349236070869098e-03  6.5593308958996422e-03  8.4139827553489921e-03  1.0849059014352973e-02  1.4080150815032968e-02  1.8423658793995070e-02  2.4370742061832200e-02  3.2679616641067513e-02  4.4706968007510013e-02  6.2382411420991664e-02  8.9762295229317460e-02  -1.0956447754265744e-01  -8.0879531369334068e-02  -5.9997939249969455e-02  -4.4979272934467573e-02  -3.4044846256554601e-02  -2.6008794271841121e-02  -2.0017784918309949e-02  -1.5504914649478001e-02  -1.2071673556261037e-02  -9.4392848830071371e-03  -7.4072019804596627e-03  -5.8295536941800714e-03  -4.5985800551374013e-03  -3.6337954213056878e-03  -2.8744584856317699e-03  -2.2743231025953328e-03  -1.7978931983611600e-03  -1.4177141762005525e-03  -1.1123846680101660e-03  -8.6507761229488137e-04  -6.6242538213554122e-04  -4.9366726693056168e-04  -3.4998662860801801e-04  -2.2398465385783454e-04  -1.0925092483464908e-04  -2.1980048179769697e-13  1.0925092438372447e-04  2.2398465334609859e-04  3.4998662808084882e-04  4.9366726640164341e-04  6.6242538161688286e-04  8.6507761179146407e-04  1.1123846675310334e-03  1.4177141757430655e-03  1.7978931979329290e-03  2.2743231021887357e-03  2.8744584852541111e-03  3.6337954209722978e-03  4.5985800548354527e-03  5.8295536939199999e-03  7.4072019802519573e-03  9.4392848828433271e-03  1.2071673556167738e-02  1.5504914649429734e-02  2.0017784918319664e-02  2.6008794271886123e-02  3.4044846256863902e-02  4.4979272934167411e-02  5.9997939249121300e-02  8.0879531368623553e-02  1.0956447754191387e-01  -1.2385333617395387e-01  -9.4327935836558408e-02  -7.1894355202060195e-02  -5.4941775541331700e-02  -4.2202287797923933e-02  -3.2577773489658929e-02  -2.5273440253393342e-02  -1.9692504504630094e-02  -1.5403703417178994e-02  -1.2089222593187865e-02  -9.5150557258294830e-03  -7.5068561593147525e-03  -5.9338247689589372e-03  -4.6969925373595203e-03  -3.7209343513367201e-03  -2.9477670361416639e-03  -2.3327778045371061e-03  -1.8412006486565060e-03  -1.4458152478008870e-03  -1.1251391885986283e-03  -8.6205158164767617e-04  -6.4273177418923866e-04  -4.5582834463726407e-04  -2.9179536558411828e-04  -1.4234801997547734e-04  -2.2737074457372222e-13  1.4234801947852899e-04  2.9179536501305539e-04  4.5582834399780244e-04  6.4273177352816113e-04  8.6205158099470825e-04  1.1251391879547616e-03  1.4458152471762673e-03  1.8412006480712808e-03  2.3327778039813952e-03  2.9477670356165965e-03  3.7209343508436046e-03  4.6969925369159584e-03  5.9338247685815490e-03  7.5068561590013122e-03  9.5150557255862730e-03  1.2089222593025785e-02  1.5403703417050309e-02  1.9692504504612570e-02  2.5273440253478448e-02  3.2577773490064556e-02  4.2202287797598388e-02  5.4941775540330258e-02  7.1894355201229221e-02  9.4327935835760504e-02  1.2385333617316491e-01  -1.3444559203800194e-01  -1.0452036772856516e-01  -8.1097840040639010e-02  -6.2948295850827840e-02  -4.8945431618069905e-02  -3.8157570527679388e-02  -2.9830880407886201e-02  -2.3387822928101994e-02  -1.8385244529522803e-02  -1.4487922120646469e-02  -1.1441275513739446e-02  -9.0518713387566178e-03  -7.1720411621905792e-03  -5.6885781918925198e-03  -4.5142688266645017e-03  -3.5815975474314311e-03  -2.8380337262187902e-03  -2.2424864461432110e-03  -1.7626191614925246e-03  -1.3728001274947580e-03  -1.0525240090554218e-03  -7.8518304417630959e-04  -5.5709688685118741e-04  -3.5673222829212632e-04  -1.7405889310756497e-04  -2.0658931000357077e-13  1.7405889262571566e-04  3.5673222771718019e-04  5.5709688622118919e-04  7.8518304351189901e-04  1.0525240083675543e-03  1.3728001267980560e-03  1.7626191608074162e-03  2.2424864454796715e-03  2.8380337255899321e-03  3.5815975468481312e-03  4.5142688261373739e-03  5.6885781914028594e-03  7.1720411617376689e-03  9.0518713383715022e-03  1.1441275513434742e-02  1.4487922120436930e-02  1.8385244529493659e-02  2.3387822928185371e-02  2.9830880408376236e-02  3.8157570527343039e-02  4.8945431616927111e-02  6.2948295849915042e-02  8.1097840039793243e-02  1.0452036772772606e-01  1.3444559203714904e-01  -1.4245390632291344e-01  -1.1226237913642027e-01  -8.8255708535479260e-02  -6.9308096687537388e-02  -5.4443810464013108e-02  -4.2807508564207536e-02  -3.3706573429964880e-02  -2.6583620068478725e-02  -2.1001385027834978e-02  -1.6618431600872747e-02  -1.3169972889277438e-02  -1.0450761269314745e-02  -8.3016816715469465e-03  -6.5991448690276601e-03  -5.2469155299564646e-03  -4.1698236986360340e-03  -3.3089418093357995e-03  -2.6178796907722198e-03  -2.0599298291036345e-03  -1.6058569599316861e-03  -1.2321750272870473e-03  -9.1979173050178796e-04  -6.5292876843006621e-04  -4.1824653577753128e-04  -2.0411709489383633e-04  -2.1072510110551094e-13  2.0411709442888040e-04  4.1824653520000123e-04  6.5292876775546640e-04  9.1979172977257114e-04  1.2321750265370506e-03  1.6058569591828121e-03  2.0599298283609621e-03  2.6178796900510727e-03  3.3089418086415978e-03  4.1698236979792530e-03  5.2469155293404009e-03  6.5991448684667459e-03  8.3016816710644141e-03  1.0450761268938662e-02  1.3169972889035193e-02  1.6618431600840537e-02  2.1001385027952086e-02  2.6583620069107448e-02  3.3706573429613966e-02  4.2807508562887155e-02  5.4443810463024711e-02  6.9308096686640036e-02  8.8255708534624333e-02  1.1226237913557220e-01  1.4245390632205537e-01  -1.4858262220072047e-01  -1.1822782693232455e-01  -9.3830643046339854e-02  -7.4356615197354439e-02  -5.8889115147271742e-02  -4.6640951305614443e-02  -3.6957865155560980e-02  -2.9307770888752960e-02  -2.3262772564284866e-02  -1.8482765980812121e-02  -1.4698910312986202e-02  -1.1699555843120433e-02  -9.3183223579210821e-03  -7.4244516435210857e-03  -5.9150925592357058e-03  -4.7092116287134004e-03  -3.7428115137191098e-03  -2.9651863052939358e-03  -2.3359880456769728e-03  -1.8229231061060798e-03  -1.3999345427320132e-03  -1.0457570619052520e-03  -7.4275523699984878e-04  -4.7597408196846272e-04  -2.3234496750279259e-04  -1.2387405825490695e-13  2.3234496717504572e-04  4.7597408152002309e-04  7.4275523645602034e-04  1.0457570612716215e-03  1.3999345420316516e-03  1.8229231053802477e-03  2.3359880449456607e-03  2.9651863045755907e-03  3.7428115130451766e-03  4.7092116280887620e-03  5.9150925586730855e-03  7.4244516430556915e-03  9.3183223575911637e-03  1.1699555842936074e-02  1.4698910312996062e-02  1.8482765980951485e-02  2.3262772565044880e-02  2.9307770888364251e-02  3.6957865154021351e-02  4.6640951304501299e-02  5.8889115146305876e-02  7.4356615196470591e-02  9.3830643045485537e-02  1.1822782693148354e-01  1.4858262219987145e-01  -1.5331744230241051e-01  -1.2285102660025776e-01  -9.8195652072594869e-02  -7.8358495169980891e-02  -6.2468530861909129e-02  -4.9776003180868847e-02  -3.9658446414129342e-02  -3.1603210970973364e-02  -2.5193588298009783e-02  -2.0093541018031451e-02  -1.6033969118139892e-02  -1.2800305670445477e-02  -1.0221953649282620e-02  -8.1634659761187587e-03  -6.5173406664287290e-03  -5.1982053893959270e-03  -4.1381633241173452e-03  -3.2830856303183260e-03  -2.5896635925104950e-03  -2.0230632742725308e-03  -1.5550535467429528e-03  -1.1625026333855924e-03  -8.2615837423871371e-04  -5.2964342459886366e-04  -2.5860899586857826e-04  -6.2838398221838653e-14  2.5860899567736766e-04  5.2964342427440825e-04  8.2615837377991025e-04  1.1625026328215677e-03  1.5550535460949486e-03  2.0230632735677443e-03  2.5896635917942914e-03  3.2830856296384775e-03  4.1381633235032505e-03  5.1982053888809119e-03  6.5173406660398916e-03  8.1634659758728061e-03  1.0221953649200536e-02  1.2800305670564489e-02  1.6033969118422423e-02  2.0093541019001081e-02  2.5193588297574353e-02  3.1603210969190033e-02  3.9658446412896627e-02  4.9776003179812532e-02  6.2468530860940105e-02  7.8358495169072340e-02  9.8195652071722081e-02  1.2285102659939298e-01  1.5331744230154232e-01  -1.5700082368761697e-01  -1.2645839386787730e-01  -1.0162375885931492e-01  -8.1534320422438411e-02  -6.5343083911745287e-02  -5.2327248500169954e-02  -4.1885329071195479e-02  -3.3520563549773501e-02  -2.6826002103502149e-02  -2.1470714175252554e-02  -1.7187142475502917e-02  -1.3759945764212229e-02  -1.1016356719903690e-02  -8.8180487125996201e-03  -7.0543849545047109e-03  -5.6368866578831948e-03  -4.4947396106590869e-03  -3.5711651965859331e-03  -2.8204984467235946e-03  -2.2058365926288090e-03  -1.6971426966126968e-03  -1.2697082488195878e-03  -9.0289525164901783e-04  -5.7909202689226805e-04  -2.8282787308201687e-04  1.1791517198468382e-15  2.8282787304035792e-04  5.7909202672690489e-04  9.0289525137153103e-04  1.2697082484437654e-03  1.6971426961803673e-03  2.2058365921781556e-03  2.8204984462807271e-03  3.5711651961708021e-03  4.4947396102898848e-03  5.6368866575953374e-03  7.0543849543239657e-03  8.8180487125583649e-03  1.1016356720084523e-02  1.3759945764605604e-02  1.7187142476672350e-02  2.1470714174818769e-02  2.6826002101470691e-02  3.3520563548343402e-02  4.1885329069957705e-02  5.2327248499090949e-02  6.5343083910778699e-02  8.1534320421522741e-02  1.0162375885843480e-01  1.2645839386700702e-01  1.5700082368674098e-01  -1.5988204060939556e-01  -1.2928588033621194e-01  -1.0432552997723664e-01  -8.4056809477299974e-02  -6.7649004998281692e-02  -5.4396178760837209e-02  -4.3711956698193270e-02  -3.5111237860776807e-02  -2.8195246231411238e-02  -2.2637932068836856e-02  -1.8174028504244311e-02  -1.4588582631256876e-02  -1.1707954350869307e-02  -9.3921862363695076e-03  -7.5286231934948312e-03  -6.0266334770952435e-03  -4.8132764797612602e-03  -3.8297676722645105e-03  -3.0286037492580024e-03  -2.3712270995502782e-03  -1.8261254943685227e-03  -1.3672787014871375e-03  -9.7287772416332742e-04  -6.2425417341253019e-04  -3.0496684783508805e-04  1.5511379127756180e-13  3.0496684813926888e-04  6.2425417365385581e-04  9.7287772426890942e-04  1.3672787014719849e-03  1.8261254942548246e-03  2.3712270993859106e-03  3.0286037490853935e-03  3.8297676721049164e-03  4.8132764796443009e-03  6.0266334770613193e-03  7.5286231936203020e-03  9.3921862367445288e-03  1.1707954351463924e-02  1.4588582632661431e-02  1.8174028503791025e-02  2.2637932066565850e-02  2.8195246229858792e-02  3.5111237859421468e-02  4.3711956697001272e-02  5.4396178759772866e-02  6.7649004997282353e-02  8.4056809476360100e-02  1.0432552997632706e-01  1.2928588033532071e-01  1.5988204060851099e-01  -1.6214548378149421e-01  -1.3151090514295008e-01  -1.0646047122600713e-01  -8.6062926026361869e-02  -6.9497611921474703e-02  -5.6070099171514107e-02  -4.5204349439149014e-02  -3.6423903185975000e-02  -2.9336390479176661e-02  -2.3620027224215842e-02  -1.9011947202888665e-02  -1.5298141134795176e-02  -1.2304858554622936e-02  -9.8913315269453881e-03  -7.9436747172947596e-03  -6.3698137484165919e-03  -5.0952965947816528e-03  -4.0598513690184874e-03  -3.2145662086886704e-03  -2.5195812042813248e-03  -1.9421967834637318e-03  -1.4553166058260897e-03  -1.0361551850777140e-03  -6.6515083541633690e-04  -3.2503304131745316e-04  3.7935674621155086e-13  3.2503304201340070e-04  6.6515083599050164e-04  1.0361551855189897e-03  1.4553166061430723e-03  1.9421967836964378e-03  2.5195812044842380e-03  3.2145662088918048e-03  4.0598513692601335e-03  5.0952965951041916e-03  6.3698137488604331e-03  7.9436747179578264e-03  9.8913315278054362e-03  1.2304858556267692e-02  1.5298141134345728e-02  1.9011947200427783e-02  2.3620027222525358e-02  2.9336390477685215e-02  3.6423903184653987e-02  4.5204349437967306e-02  5.6070099170429537e-02  6.9497611920470437e-02  8.6062926025404884e-02  1.0646047122508985e-01  1.3151090514206670e-01  1.6214548378062416e-01  -1.6392964059820858e-01  -1.3326713258569742e-01  -1.0815138041881087e-01  -8.7660059161517631e-02  -7.0979217228613292e-02  -5.7422112609945550e-02  -4.6419949157973650e-02  -3.7502524268740511e-02  -3.0282390809335796e-02  -2.4441275613491582e-02  -1.9718527877289008e-02  -1.5901271254347628e-02  -1.2816053607650943e-02  -1.0321807157053522e-02  -8.3039510177654301e-03  -6.6694797335397227e-03  -5.3428935107453354e-03  -4.2628388671212148e-03  -3.3793423718272860e-03  -2.6515342454758672e-03  -2.0457721688122757e-03  -1.5340881266304180e-03  -1.0928921437109397e-03  -7.0187617233388039e-04  -3.4306911137461807e-04  5.4902200082204391e-13  3.4306911244411450e-04  7.0187617330748787e-04  1.0928921445689515e-03  1.5340881273929697e-03  2.0457721695150443e-03  2.6515342461218552e-03  3.3793423724751770e-03  4.2628388678364057e-03  5.3428935116122738e-03  6.6694797346382130e-03  8.3039510190068486e-03  1.0321807159002744e-02  1.2816053607264151e-02  1.5901271251704905e-02  1.9718527875399426e-02  2.4441275611842003e-02  3.0282390807894837e-02  3.7502524267461396e-02  4.6419949156812114e-02  5.7422112608851876e-02  7.0979217227567046e-02  8.7660059160515724e-02  1.0815138041783823e-01  1.3326713258474399e-01  1.6392964059725967e-01  -1.6533962389063880e-01  -1.3465659667338384e-01  -1.0949290934832816e-01  -8.8932675549941692e-02  -7.2166399191401762e-02  -5.8512617861774710e-02  -4.7407590082966584e-02  -3.8385646935542798e-02  -3.1063054193328565e-02  -2.5124337697085313e-02  -2.0310754608952299e-02  -1.6410552349102377e-02  -1.3250763439608978e-02  -1.0690318518978337e-02  -8.6142895764639467e-03  -6.9290970673906568e-03  -5.5585335216233366e-03  -4.4404734622329415e-03  -3.5241554531398691e-03  -2.7679369617791502e-03  -2.1374362063431053e-03  -1.6039871734322866e-03  -1.1433444135465914e-03  -7.3458301971411231e-04  -3.5914638812302766e-04  7.4392002649172607e-13  3.5914638957005771e-04  7.3458302107733543e-04  1.1433444148170608e-03  1.6039871746387577e-03  2.1374362075060943e-03  2.7679369629673286e-03  3.5241554543786776e-03  4.4404734635833725e-03  5.5585335231326987e-03  6.9290970690286556e-03  8.6142895787757277e-03  1.0690318518737604e-02  1.3250763436891766e-02  1.6410552347093658e-02  2.0310754607191017e-02  2.5124337695537926e-02  3.1063054191943308e-02  3.8385646934287761e-02  4.7407590081807574e-02  5.8512617860658735e-02  7.2166399190322805e-02  8.8932675548909546e-02  1.0949290934733291e-01  1.3465659667240124e-01  1.6533962388965218e-01  -1.6645590691290651e-01  -1.3575765988804731e-01  -1.1055847469304593e-01  -8.9947167869293465e-02  -7.3117282646360776e-02  -5.9391007407337618e-02  -4.8208162133561189e-02  -3.9106354479850232e-02  -3.1704626924773452e-02  -2.5689689295444011e-02  -2.0804376158528353e-02  -1.6837952602035088e-02  -1.3617990745871640e-02  -1.1003578524204968e-02  -8.8796578025075023e-03  -7.1523164435603808e-03  -5.7448825508643296e-03  -4.5946896427914771e-03  -3.6503995226843649e-03  -2.8697854257972665e-03  -2.2178918989109240e-03  -1.6654998104803627e-03  -1.1878350637486981e-03  -7.6346805738678641e-04  -3.7335780675539713e-04  8.6429366051231562e-13  3.7335780849841193e-04  7.6346805912870367e-04  1.1878350654703957e-03  1.6654998121903844e-03  2.2178919006452602e-03  2.8697854275534004e-03  3.6503995245321368e-03  4.5946896447614204e-03  5.7448825529053419e-03  7.1523164461936434e-03  8.8796578024609857e-03  1.1003578521544658e-02  1.3617990743851033e-02  1.6837952600204143e-02  2.0804376156912247e-02  2.5689689293990729e-02  3.1704626923446527e-02  3.9106354478627606e-02  4.8208162132394476e-02  5.9391007406210602e-02  7.3117282645272563e-02  8.9947167868240460e-02  1.1055847469202856e-01  1.3575765988704630e-01  1.6645590691190895e-01  -1.6734050013250651e-01  -1.3663088172870888e-01  -1.1140520853571691e-01  -9.0755792727947260e-02  -7.3878275926400783e-02  -6.0097404448853323e-02  -4.8855521336796354e-02  -3.9692606195037006e-02  -3.2229766352236226e-02  -2.6155392563515012e-02  -2.1213589093367267e-02  -1.7194495269280394e-02  -1.3926205535984252e-02  -1.1268036510793051e-02  -9.1049275037425464e-03  -7.3427918445746762e-03  -5.9046630144675115e-03  -4.7275024095882294e-03  -3.7595552342581614e-03  -2.9581578388352763e-03  -2.2879141289883962e-03  -1.7191708281344207e-03  -1.2267314919022678e-03  -7.8875751277125846e-04  -3.8581104860360471e-04  9.6352308943951728e-13  3.8581105060041352e-04  7.8875751486205724e-04  1.2267314940266987e-03  1.7191708303017621e-03  2.2879141311973952e-03  2.9581578411489065e-03  3.7595552366739417e-03  4.7275024120439673e-03  5.9046630174432162e-03  7.3427918447272391e-03  9.1049275011343706e-03  1.1268036508805599e-02  1.3926205534163683e-02  1.7194495267648980e-02  2.1213589091872938e-02  2.6155392562121078e-02  3.2229766350957881e-02  3.9692606193835210e-02  4.8855521335635491e-02  6.0097404447742087e-02  7.3878275925334122e-02  9.0755792726896600e-