<?xml version="1.0"?>
<VTKFile type="UnstructuredGrid"  version="0.1"  >
<UnstructuredGrid>
<Piece  NumberOfPoints="4225" NumberOfCells="4096">
<Points>
<DataArray  type="Float64"  NumberOfComponents="3"  format="ascii">0 0 0  0.015625 0 0  0.03125 0 0  0.046875 0 0  0.0625 0 0  0.078125 0 0  0.09375 0 0  0.109375 0 0  0.125 0 0  0.140625 0 0  0.15625 0 0  0.171875 0 0  0.1875 0 0  0.203125 0 0  0.21875 0 0  0.234375 0 0  0.25 0 0  0.265625 0 0  0.28125 0 0  0.296875 0 0  0.3125 0 0  0.328125 0 0  0.34375 0 0  0.359375 0 0  0.375 0 0  0.390625 0 0  0.40625 0 0  0.421875 0 0  0.4375 0 0  0.453125 0 0  0.46875 0 0  0.484375 0 0  0.5 0 0  0.515625 0 0  0.53125 0 0  0.546875 0 0  0.5625 0 0  0.578125 0 0  0.59375 0 0  0.609375 0 0  0.625 0 0  0.640625 0 0  0.65625 0 0  0.671875 0 0  0.6875 0 0  0.703125 0 0  0.71875 0 0  0.734375 0 0  0.75 0 0  0.765625 0 0  0.78125 0 0  0.796875 0 0  0.8125 0 0  0.828125 0 0  0.84375 0 0  0.859375 0 0  0.875 0 0  0.890625 0 0  0.90625 0 0  0.921875 0 0  0.9375 0 0  0.953125 0 0  0.96875 0 0  0.984375 0 0  1 0 0  0 0.015625 0  0.015625 0.015625 0  0.03125 0.015625 0  0.046875 0.015625 0  0.0625 0.015625 0  0.078125 0.015625 0  0.09375 0.015625 0  0.109375 0.015625 0  0.125 0.015625 0  0.140625 0.015625 0  0.15625 0.015625 0  0.171875 0.015625 0  0.1875 0.015625 0  0.203125 0.015625 0  0.21875 0.015625 0  0.234375 0.015625 0  0.25 0.015625 0  0.265625 0.015625 0  0.28125 0.015625 0  0.296875 0.015625 0  0.3125 0.015625 0  0.328125 0.015625 0  0.34375 0.015625 0  0.359375 0.015625 0  0.375 0.015625 0  0.390625 0.015625 0  0.40625 0.015625 0  0.421875 0.015625 0  0.4375 0.015625 0  0.453125 0.015625 0  0.46875 0.015625 0  0.484375 0.015625 0  0.5 0.015625 0  0.515625 0.015625 0  0.53125 0.015625 0  0.546875 0.015625 0  0.5625 0.015625 0  0.578125 0.015625 0  0.59375 0.015625 0  0.609375 0.015625 0  0.625 0.015625 0  0.640625 0.015625 0  0.65625 0.015625 0  0.671875 0.015625 0  0.6875 0.015625 0  0.703125 0.015625 0  0.71875 0.015625 0  0.734375 0.015625 0  0.75 0.015625 0  0.765625 0.015625 0  0.78125 0.015625 0  0.796875 0.015625 0  0.8125 0.015625 0  0.828125 0.015625 0  0.84375 0.015625 0  0.859375 0.015625 0  0.875 0.015625 0  0.890625 0.015625 0  0.90625 0.015625 0  0.921875 0.015625 0  0.9375 0.015625 0  0.953125 0.015625 0  0.96875 0.015625 0  0.984375 0.015625 0  1 0.015625 0  0 0.03125 0  0.015625 0.03125 0  0.03125 0.03125 0  0.046875 0.03125 0  0.0625 0.03125 0  0.078125 0.03125 0  0.09375 0.03125 0  0.109375 0.03125 0  0.125 0.03125 0  0.140625 0.03125 0  0.15625 0.03125 0  0.171875 0.03125 0  0.1875 0.03125 0  0.203125 0.03125 0  0.21875 0.03125 0  0.234375 0.03125 0  0.25 0.03125 0  0.265625 0.03125 0  0.28125 0.03125 0  0.296875 0.03125 0  0.3125 0.03125 0  0.328125 0.03125 0  0.34375 0.03125 0  0.359375 0.03125 0  0.375 0.03125 0  0.390625 0.03125 0  0.40625 0.03125 0  0.421875 0.03125 0  0.4375 0.03125 0  0.453125 0.03125 0  0.46875 0.03125 0  0.484375 0.03125 0  0.5 0.03125 0  0.515625 0.03125 0  0.53125 0.03125 0  0.546875 0.03125 0  0.5625 0.03125 0  0.578125 0.03125 0  0.59375 0.03125 0  0.609375 0.03125 0  0.625 0.03125 0  0.640625 0.03125 0  0.65625 0.03125 0  0.671875 0.03125 0  0.6875 0.03125 0  0.703125 0.03125 0  0.71875 0.03125 0  0.734375 0.03125 0  0.75 0.03125 0  0.765625 0.03125 0  0.78125 0.03125 0  0.796875 0.03125 0  0.8125 0.03125 0  0.828125 0.03125 0  0.84375 0.03125 0  0.859375 0.03125 0  0.875 0.03125 0  0.890625 0.03125 0  0.90625 0.03125 0  0.921875 0.03125 0  0.9375 0.03125 0  0.953125 0.03125 0  0.96875 0.03125 0  0.984375 0.03125 0  1 0.03125 0  0 0.046875 0  0.015625 0.046875 0  0.03125 0.046875 0  0.046875 0.046875 0  0.0625 0.046875 0  0.078125 0.046875 0  0.09375 0.046875 0  0.109375 0.046875 0  0.125 0.046875 0  0.140625 0.046875 0  0.15625 0.046875 0  0.171875 0.046875 0  0.1875 0.046875 0  0.203125 0.046875 0  0.21875 0.046875 0  0.234375 0.046875 0  0.25 0.046875 0  0.265625 0.046875 0  0.28125 0.046875 0  0.296875 0.046875 0  0.3125 0.046875 0  0.328125 0.046875 0  0.34375 0.046875 0  0.359375 0.046875 0  0.375 0.046875 0  0.390625 0.046875 0  0.40625 0.046875 0  0.421875 0.046875 0  0.4375 0.046875 0  0.453125 0.046875 0  0.46875 0.046875 0  0.484375 0.046875 0  0.5 0.046875 0  0.515625 0.046875 0  0.53125 0.046875 0  0.546875 0.046875 0  0.5625 0.046875 0  0.578125 0.046875 0  0.59375 0.046875 0  0.609375 0.046875 0  0.625 0.046875 0  0.640625 0.046875 0  0.65625 0.046875 0  0.671875 0.046875 0  0.6875 0.046875 0  0.703125 0.046875 0  0.71875 0.046875 0  0.734375 0.046875 0  0.75 0.046875 0  0.765625 0.046875 0  0.78125 0.046875 0  0.796875 0.046875 0  0.8125 0.046875 0  0.828125 0.046875 0  0.84375 0.046875 0  0.859375 0.046875 0  0.875 0.046875 0  0.890625 0.046875 0  0.90625 0.046875 0  0.921875 0.046875 0  0.9375 0.046875 0  0.953125 0.046875 0  0.96875 0.046875 0  0.984375 0.046875 0  1 0.046875 0  0 0.0625 0  0.015625 0.0625 0  0.03125 0.0625 0  0.046875 0.0625 0  0.0625 0.0625 0  0.078125 0.0625 0  0.09375 0.0625 0  0.109375 0.0625 0  0.125 0.0625 0  0.140625 0.0625 0  0.15625 0.0625 0  0.171875 0.0625 0  0.1875 0.0625 0  0.203125 0.0625 0  0.21875 0.0625 0  0.234375 0.0625 0  0.25 0.0625 0  0.265625 0.0625 0  0.28125 0.0625 0  0.296875 0.0625 0  0.3125 0.0625 0  0.328125 0.0625 0  0.34375 0.0625 0  0.359375 0.0625 0  0.375 0.0625 0  0.390625 0.0625 0  0.40625 0.0625 0  0.421875 0.0625 0  0.4375 0.0625 0  0.453125 0.0625 0  0.46875 0.0625 0  0.484375 0.0625 0  0.5 0.0625 0  0.515625 0.0625 0  0.53125 0.0625 0  0.546875 0.0625 0  0.5625 0.0625 0  0.578125 0.0625 0  0.59375 0.0625 0  0.609375 0.0625 0  0.625 0.0625 0  0.640625 0.0625 0  0.65625 0.0625 0  0.671875 0.0625 0  0.6875 0.0625 0  0.703125 0.0625 0  0.71875 0.0625 0  0.734375 0.0625 0  0.75 0.0625 0  0.765625 0.0625 0  0.78125 0.0625 0  0.796875 0.0625 0  0.8125 0.0625 0  0.828125 0.0625 0  0.84375 0.0625 0  0.859375 0.0625 0  0.875 0.0625 0  0.890625 0.0625 0  0.90625 0.0625 0  0.921875 0.0625 0  0.9375 0.0625 0  0.953125 0.0625 0  0.96875 0.0625 0  0.984375 0.0625 0  1 0.0625 0  0 0.078125 0  0.015625 0.078125 0  0.03125 0.078125 0  0.046875 0.078125 0  0.0625 0.078125 0  0.078125 0.078125 0  0.09375 0.078125 0  0.109375 0.078125 0  0.125 0.078125 0  0.140625 0.078125 0  0.15625 0.078125 0  0.171875 0.078125 0  0.1875 0.078125 0  0.203125 0.078125 0  0.21875 0.078125 0  0.234375 0.078125 0  0.25 0.078125 0  0.265625 0.078125 0  0.28125 0.078125 0  0.296875 0.078125 0  0.3125 0.078125 0  0.328125 0.078125 0  0.34375 0.078125 0  0.359375 0.078125 0  0.375 0.078125 0  0.390625 0.078125 0  0.40625 0.078125 0  0.421875 0.078125 0  0.4375 0.078125 0  0.453125 0.078125 0  0.46875 0.078125 0  0.484375 0.078125 0  0.5 0.078125 0  0.515625 0.078125 0  0.53125 0.078125 0  0.546875 0.078125 0  0.5625 0.078125 0  0.578125 0.078125 0  0.59375 0.078125 0  0.609375 0.078125 0  0.625 0.078125 0  0.640625 0.078125 0  0.65625 0.078125 0  0.671875 0.078125 0  0.6875 0.078125 0  0.703125 0.078125 0  0.71875 0.078125 0  0.734375 0.078125 0  0.75 0.078125 0  0.765625 0.078125 0  0.78125 0.078125 0  0.796875 0.078125 0  0.8125 0.078125 0  0.828125 0.078125 0  0.84375 0.078125 0  0.859375 0.078125 0  0.875 0.078125 0  0.890625 0.078125 0  0.90625 0.078125 0  0.921875 0.078125 0  0.9375 0.078125 0  0.953125 0.078125 0  0.96875 0.078125 0  0.984375 0.078125 0  1 0.078125 0  0 0.09375 0  0.015625 0.09375 0  0.03125 0.09375 0  0.046875 0.09375 0  0.0625 0.09375 0  0.078125 0.09375 0  0.09375 0.09375 0  0.109375 0.09375 0  0.125 0.09375 0  0.140625 0.09375 0  0.15625 0.09375 0  0.171875 0.09375 0  0.1875 0.09375 0  0.203125 0.09375 0  0.21875 0.09375 0  0.234375 0.09375 0  0.25 0.09375 0  0.265625 0.09375 0  0.28125 0.09375 0  0.296875 0.09375 0  0.3125 0.09375 0  0.328125 0.09375 0  0.34375 0.09375 0  0.359375 0.09375 0  0.375 0.09375 0  0.390625 0.09375 0  0.40625 0.09375 0  0.421875 0.09375 0  0.4375 0.09375 0  0.453125 0.09375 0  0.46875 0.09375 0  0.484375 0.09375 0  0.5 0.09375 0  0.515625 0.09375 0  0.53125 0.09375 0  0.546875 0.09375 0  0.5625 0.09375 0  0.578125 0.09375 0  0.59375 0.09375 0  0.609375 0.09375 0  0.625 0.09375 0  0.640625 0.09375 0  0.65625 0.09375 0  0.671875 0.09375 0  0.6875 0.09375 0  0.703125 0.09375 0  0.71875 0.09375 0  0.734375 0.09375 0  0.75 0.09375 0  0.765625 0.09375 0  0.78125 0.09375 0  0.796875 0.09375 0  0.8125 0.09375 0  0.828125 0.09375 0  0.84375 0.09375 0  0.859375 0.09375 0  0.875 0.09375 0  0.890625 0.09375 0  0.90625 0.09375 0  0.921875 0.09375 0  0.9375 0.09375 0  0.953125 0.09375 0  0.96875 0.09375 0  0.984375 0.09375 0  1 0.09375 0  0 0.109375 0  0.015625 0.109375 0  0.03125 0.109375 0  0.046875 0.109375 0  0.0625 0.109375 0  0.078125 0.109375 0  0.09375 0.109375 0  0.109375 0.109375 0  0.125 0.109375 0  0.140625 0.109375 0  0.15625 0.109375 0  0.171875 0.109375 0  0.1875 0.109375 0  0.203125 0.109375 0  0.21875 0.109375 0  0.234375 0.109375 0  0.25 0.109375 0  0.265625 0.109375 0  0.28125 0.109375 0  0.296875 0.109375 0  0.3125 0.109375 0  0.328125 0.109375 0  0.34375 0.109375 0  0.359375 0.109375 0  0.375 0.109375 0  0.390625 0.109375 0  0.40625 0.109375 0  0.421875 0.109375 0  0.4375 0.109375 0  0.453125 0.109375 0  0.46875 0.109375 0  0.484375 0.109375 0  0.5 0.109375 0  0.515625 0.109375 0  0.53125 0.109375 0  0.546875 0.109375 0  0.5625 0.109375 0  0.578125 0.109375 0  0.59375 0.109375 0  0.609375 0.109375 0  0.625 0.109375 0  0.640625 0.109375 0  0.65625 0.109375 0  0.671875 0.109375 0  0.6875 0.109375 0  0.703125 0.109375 0  0.71875 0.109375 0  0.734375 0.109375 0  0.75 0.109375 0  0.765625 0.109375 0  0.78125 0.109375 0  0.796875 0.109375 0  0.8125 0.109375 0  0.828125 0.109375 0  0.84375 0.109375 0  0.859375 0.109375 0  0.875 0.109375 0  0.890625 0.109375 0  0.90625 0.109375 0  0.921875 0.109375 0  0.9375 0.109375 0  0.953125 0.109375 0  0.96875 0.109375 0  0.984375 0.109375 0  1 0.109375 0  0 0.125 0  0.015625 0.125 0  0.03125 0.125 0  0.046875 0.125 0  0.0625 0.125 0  0.078125 0.125 0  0.09375 0.125 0  0.109375 0.125 0  0.125 0.12
[...]
<PointData  Scalars="f_10-0"> 
<DataArray  type="Float64"  Name="f_10-0"  format="ascii">-3.9609602283240503e-01  -3.9722736232517980e-01  -3.9965104234325693e-01  -4.0269505601073041e-01  -4.0601700903930299e-01  -4.0936430182013556e-01  -4.1253489089625806e-01  -4.1535867518504388e-01  -4.1768839959147613e-01  -4.1939455569565537e-01  -4.2036233863748629e-01  -4.2048974790443816e-01  -4.1968636603769310e-01  -4.1787255521528338e-01  -4.1497891698735417e-01  -4.1094591812363390e-01  -4.0572361904068344e-01  -3.9927146173940964e-01  -3.9155808726015912e-01  -3.8256116138859592e-01  -3.7226719342320519e-01  -3.6067133723463340e-01  -3.4777716719879875e-01  -3.3359642422682245e-01  -3.1814872926032411e-01  -3.0146126337608448e-01  -2.8356841511793268e-01  -2.6451139687807351e-01  -2.4433783309556012e-01  -2.2310132372652658e-01  -2.0086098686789963e-01  -1.7768098458768028e-01  -1.5363003594470775e-01  -1.2878092089600204e-01  -1.0320997833024542e-01  -7.6996600882659402e-02  -5.0222728537542720e-02  -2.2972342370035231e-02  4.6690408256302362e-03  3.2614872781217684e-02  6.0778077009476586e-02  8.9071551435152385e-02  1.1740867085100067e-01  1.4570378960070973e-01  1.7387274474456116e-01  2.0183335976071823e-01  2.2950594862582971e-01  2.5681381996026570e-01  2.8368378087944074e-01  3.1004664033632817e-01  3.3583771216124308e-01  3.6099731882414454e-01  3.8547129834049892e-01  4.0921151899814956e-01  4.3217641017969394e-01  4.5433152334606142e-01  4.7565014682702789e-01  4.9611401457938581e-01  5.1571417916416562e-01  5.3445217788156829e-01  5.5234174791407487e-01  5.6941163844128440e-01  5.8571108340893840e-01  6.0132108385238081e-01  6.1642254465827429e-01  -3.9480319318441814e-01  -3.9532840499937810e-01  -3.9677146070866209e-01  -3.9877601827636117e-01  -4.0104190128150480e-01  -4.0334025317411115e-01  -4.0548342134896376e-01  -4.0731204942618476e-01  -4.0868768539196260e-01  -4.0948842837341298e-01  -4.0960622722747908e-01  -4.0894514851298075e-01  -4.0742023804346106e-01  -4.0495675713728707e-01  -4.0148965905228984e-01  -3.9696321920891398e-01  -3.9133076159690577e-01  -3.8455444175648040e-01  -3.7660505844230902e-01  -3.6746187402061897e-01  -3.5711242925690667e-01  -3.4555234227907949e-01  -3.3278508466628737e-01  -3.1882173013375004e-01  -3.0368067334984927e-01  -2.8738731814465635e-01  -2.6997373580772915e-01  -2.5147829535266331e-01  -2.3194526855186912e-01  -2.1142441321343322e-01  -1.8997053857823665e-01  -1.6764305686149350e-01  -1.4450552486156382e-01  -1.2062517923715839e-01  -9.6072468552975271e-02  -7.0920584566454462e-02  -4.5244994535596432e-02  -1.9122975632702502e-02  7.3668480895488931e-03  3.4144966265952099e-02  6.1131440799126392e-02  8.8246363165620539e-02  1.1541031123897069e-01  1.4254480636005981e-01  1.6957277121795294e-01  1.9641898887454606e-01  2.2301056302554406e-01  2.4927737939579711e-01  2.7515256808135663e-01  3.0057296674355949e-01  3.2547958491534751e-01  3.4981807040608370e-01  3.7353918004553077e-01  3.9659925903537685e-01  4.1896073638258224e-01  4.4059264897471234e-01  4.6147121509344496e-01  4.8158049195600316e-01  5.0091317601470942e-01  5.1947164951534519e-01  5.3726946409253684e-01  5.5433365231820297e-01  5.7070856777802237e-01  5.8646456860051654e-01  6.0169382031015850e-01  -3.9188204399727083e-01  -3.9219163888489950e-01  -3.9305180949239532e-01  -3.9429768711112617e-01  -3.9572951399908290e-01  -3.9716270459859027e-01  -3.9843561619069490e-01  -3.9940621329020887e-01  -3.9994882731862608e-01  -3.9995166808394317e-01  -3.9931505891261743e-01  -3.9795020564333827e-01  -3.9577833975886917e-01  -3.9273011838582711e-01  -3.8874519815376218e-01  -3.8377192417610079e-01  -3.7776709214525073e-01  -3.7069575309362751e-01  -3.6253103849469315e-01  -3.5325398923200640e-01  -3.4285337631886592e-01  -3.3132550460850729e-01  -3.1867399342054253e-01  -3.0490953023084505e-01  -2.9004959545621384e-01  -2.7411815798262296e-01  -2.5714534246831472e-01  -2.3916707060580109e-01  -2.2022467943963600e-01  -2.0036452049296055e-01  -1.7963754384066999e-01  -1.5809887137519596e-01  -1.3580736335146282e-01  -1.1282518189725774e-01  -8.9217354578520966e-02  -6.5051340375470404e-02  -4.0396599624517436e-02  -1.5324168685091129e-02  1.0093760632374257e-02  3.5784257434729440e-02  6.1674064893694196e-02  8.7690011394642733e-02  1.1375942096321706e-01  1.3981052413868209e-01  1.6577287023027418e-01  1.9157774158381255e-01  2.1715857015588666e-01  2.4245135640037835e-01  2.6739509027648034e-01  2.9193217414975092e-01  3.1600884754385922e-01  3.3957561418796678e-01  3.6258767269383541e-01  3.8500535363016331e-01  4.0679456795102387e-01  4.2792727500143674e-01  4.4838198314448541e-01  4.6814430308959815e-01  4.8720758393145275e-01  5.0557367421063826e-01  5.2325385913197142e-01  5.4026997954980849e-01  5.5665554445381515e-01  5.7245365782520263e-01  5.8770291274387976e-01  -3.8797147211209410e-01  -3.8814446634333855e-01  -3.8862759401566949e-01  -3.8932453937495543e-01  -3.9010599351800185e-01  -3.9083434844031578e-01  -3.9137792262725818e-01  -3.9161535042766715e-01  -3.9143616742794779e-01  -3.9074039001799760e-01  -3.8943789398228845e-01  -3.8744784359165019e-01  -3.8469822949618682e-01  -3.8112551203057776e-01  -3.7667434878962919e-01  -3.7129738273523655e-01  -3.6495506934535699e-01  -3.5761552476620145e-01  -3.4925438034785405e-01  -3.3985463198397314e-01  -3.2940647530492545e-01  -3.1790712005421967e-01  -3.0536057898879382e-01  -2.9177742844801180e-01  -2.7717453937351133e-01  -2.6157477904666915e-01  -2.4500668513458959e-01  -2.2750411477431973e-01  -2.0910587234314798e-01  -1.8985532022260060e-01  -1.6979997723327428e-01  -1.4899110947896374e-01  -1.2748331809403474e-01  -1.0533412786400533e-01  -8.2603579936472063e-02  -5.9353830929173124e-02  -3.5648759759236440e-02  -1.1553582552122610e-02  1.2865524875662324e-02  3.7541798160483586e-02  6.2408250840444060e-02  8.7398038028349265e-02  1.1244481923752020e-01  1.3748312209673780e-01  1.6244870834316213e-01  1.8727894303792922e-01  2.1191316747110997e-01  2.3629307577245098e-01  2.6036309487836928e-01  2.8407076727336322e-01  3.0736713586713227e-01  3.3020713052190581e-01  3.5254995613459428e-01  3.7435948281870685e-01  3.9560463960082781e-01  4.1625981403223583e-01  4.3630526085139465e-01  4.5572752226674135e-01  4.7451985762092080e-01  4.9268266296992347e-01  5.1022380661703570e-01  5.2715864999997641e-01  5.4350895822928325e-01  5.5929898755428098e-01  5.7454856915763253e-01  -3.8336920331221203e-01  -3.8344782645251790e-01  -3.8366147625482150e-01  -3.8394864198892587e-01  -3.8422093240215444e-01  -3.8437691402098595e-01  -3.8431252397613130e-01  -3.8392704391771354e-01  -3.8312582257824929e-01  -3.8182135780261656e-01  -3.7993365823650549e-01  -3.7739030407859325e-01  -3.7412639363919969e-01  -3.7008445465807388e-01  -3.6521435041953337e-01  -3.5947318867961853e-01  -3.5282523182518344e-01  -3.4524180288374140e-01  -3.3670118092325141e-01  -3.2718847958708464e-01  -3.1669550332875979e-01  -3.0522057702992123e-01  -2.9276834595621409e-01  -2.7934954435454362e-01  -2.6498073237321873e-01  -2.4968400234812460e-01  -2.3348665679068595e-01  -2.1642086157491155e-01  -1.9852327878302550e-01  -1.7983468436478256e-01  -1.6039957613758635e-01  -1.4026577766622664e-01  -1.1948404320448720e-01  -9.8107668182005892e-02  -7.6192108739028708e-02  -5.3794612639107120e-02  -3.0973862635309976e-02  -7.7896321459539888e-03  1.5697547979537194e-02  3.9426713666607868e-02  6.3336785406891374e-02  8.7366882485995154e-02  1.1145663643460024e-01  1.3554650616548325e-01  1.5957809673819118e-01  1.8349448305025123e-01  2.0724053906508996e-01  2.3076327252133350e-01  2.5401216448161262e-01  2.7693951260948041e-01  2.9950077672767672e-01  3.2165492500135734e-01  3.4336477896236445e-01  3.6459735544382016e-01  3.8532420311862764e-01  4.0552173030165389e-01  4.2517151808962361e-01  4.4426060687194296e-01  4.6278173062902006e-01  4.8073344315380578e-01  4.9812001465416844e-01  5.1495083547387088e-01  5.3123886810732457e-01  5.4699780909236273e-01  5.6223824704957515e-01  -3.7827591989399195e-01  -3.7828449133772019e-01  -3.7829532212769756e-01  -3.7826626218005049e-01  -3.7813434983017824e-01  -3.7782374367511695e-01  -3.7725283154652800e-01  -3.7633937106898924e-01  -3.7500369572694725e-01  -3.7317053848999238e-01  -3.7077003058558616e-01  -3.6773824258810911e-01  -3.6401747676477464e-01  -3.5955642376547214e-01  -3.5431024269841072e-01  -3.4824059406847052e-01  -3.4131563908539159e-01  -3.3351001034590982e-01  -3.2480475451244312e-01  -3.1518724554353350e-01  -3.0465106630222327e-01  -2.9319585644817070e-01  -2.8082712511417918e-01  -2.6755602780513804e-01  -2.5339910812035793e-01  -2.3837800619180036e-01  -2.2251913705431517e-01  -2.0585334341656647e-01  -1.8841552837426828e-01  -1.7024427439445081e-01  -1.5138145530898731e-01  -1.3187184802396967e-01  -1.1176275015571435e-01  -9.1103608869618852e-02  -6.9945664899890223e-02  -4.8341614184522520e-02  -2.6345287908303823e-02  -4.0113501649042781e-03  1.8604988925419931e-02  4.1448247855294704e-02  6.4462939988979048e-02  8.7593835526570185e-02  1.1078622308153070e-01  1.3398617426135048e-01  1.5714081387265755e-01  1.8019859745398398e-01  2.0310959686960042e-01  2.2582579375933012e-01  2.4830137979144445e-01  2.7049306193867056e-01  2.9236037038731000e-01  3.1386596615297208e-01  3.3497594491770966e-01  3.5566013284800996e-01  3.7589236889416683e-01  3.9565076576480945e-01  4.1491793743696281e-01  4.3368117293736863e-01  4.5193252110550358e-01  4.6966872419042882e-01  4.8689089359564935e-01  5.0360376742136237e-01  5.1981439137404584e-01  5.3553021193111239e-01  5.5075690555824552e-01  -3.7283734806398966e-01  -3.7279175298663642e-01  -3.7264441539153897e-01  -3.7236504422058037e-01  -3.7190724903488082e-01  -3.7121334496652725e-01  -3.7021913754258523e-01  -3.6885790725539541e-01  -3.6706334029864351e-01  -3.6477151911556971e-01  -3.6192221901091887e-01  -3.5845974200795100e-01  -3.5433345499963281e-01  -3.4949814013055852e-01  -3.4391422340197486e-01  -3.3754792033191194e-01  -3.3037132063245533e-01  -3.2236242362336365e-01  -3.1350513001516872e-01  -3.0378919221704659e-01  -2.9321012351717096e-01  -2.8176906578591415e-01  -2.6947261542814704e-01  -2.5633260794662677e-01  -2.4236586252100514e-01  -2.2759388932400090e-01  -2.1204256375314925e-01  -1.9574177320678926e-01  -1.7872504331943764e-01  -1.6102915153752489e-01  -1.4269373642216251e-01  -1.2376091100956506e-01  -1.0427488789700802e-01  -8.4281622477065804e-02  -6.3828479011730277e-02  -4.2963922180412915e-02  -2.1737234554565336e-02  -1.9825836499746553e-04  2.1602841860888903e-02  4.3615800545379307e-02  6.5790461718199619e-02  8.8076984805299532e-02  1.1042605091787791e-01  1.3278907421382716e-01  1.5511842178947219e-01  1.7736764426888471e-01  1.9949171792284406e-01  2.2144729787553091e-01  2.4319298081346535e-01  2.6468957462461062e-01  2.8590037154704873e-01  3.0679142062833586e-01  3.2733179446359206e-01  3.4749384409183220e-01  3.6725343427367718e-01  3.8659014866533725e-01  4.0548744990332930e-01  4.2393277225004633e-01  4.4191751292224213e-01  4.5943687183795179e-01  4.7648947170605443e-01  4.9307668647975628e-01  5.0920164416965563e-01  5.2486797452571066e-01  5.4007852179033444e-01  -3.6716503002494233e-01  -3.6707633986343624e-01  -3.6680249097929207e-01  -3.6632095324464070e-01  -3.6559664482060783e-01  -3.6458498325686917e-01  -3.6323515407667473e-01  -3.6149309879759434e-01  -3.5930396374357509e-01  -3.5661396375198329e-01  -3.5337173825596047e-01  -3.4952931653697394e-01  -3.4504280032410728e-01  -3.3987284684576202e-01  -3.3398501042838113e-01  -3.2734998099786855e-01  -3.1994374369568873e-01  -3.1174767418108984e-01  -3.0274857783993891e-01  -2.9293867709672627e-01  -2.8231554865540609e-01  -2.7088201133243373e-01  -2.5864596490341213e-01  -2.4562018086729531e-01  -2.3182204708552265e-01  -2.1727326973003239e-01  -2.0199953770857210e-01  -1.8603015653544439e-01  -1.6939766026433115e-01  -1.5213741137310285e-01  -1.3428719918306883e-01  -1.1588684735095289e-01  -9.6977840113694799e-02  -7.7602975315728004e-02  -5.7806049932180165e-02  -3.7631581038745733e-02  -1.7124562252975234e-02  3.6697471113616939e-03  2.4706005291328222e-02  4.5938950545901074e-02  6.7323550604274723e-02  8.8815146971165784e-02  1.1036960136175494e-01  1.3194345034353142e-01  1.5349407266861156e-01  1.7497987198884341e-01  1.9636047583882721e-01  2.1759695008904997e-01  2.3865202659850948e-01  2.5949034056052539e-01  2.8007867300656525e-01  3.0038619302636327e-01  3.2038469334107866e-01  3.4004881173578860e-01  3.5935622925817801e-01  3.7828783368651980e-01  3.9682783316600601e-01  4.1496379975868508e-01  4.3268661601189867e-01  4.4999029098303905e-01  4.6687161013757639e-01  4.8332959508714585e-01  4.9936478450231792e-01  5.1497840822805474e-01  5.3017159486240173e-01  -3.6134715304652609e-01  -3.6122344358989017e-01  -3.6084641862843081e-01  -3.6019889374681630e-01  -3.5925380304047133e-01  -3.5797622109208732e-01  -3.5632564577139825e-01  -3.5425822868931534e-01  -3.5172874860808084e-01  -3.4869224052886755e-01  -3.4510528011315611e-01  -3.4092696892763980e-01  -3.3611967958753486e-01  -3.3064961557566769e-01  -3.2448722947275216e-01  -3.1760753160455146e-01  -3.0999031109232716e-01  -3.0162028353676423e-01  -2.9248717390505180e-01  -2.8258573927194902e-01  -2.7191573355706677e-01  -2.6048181505129497e-01  -2.4829339715895132e-01  -2.3536444326764300e-01  -2.2171320787373461e-01  -2.0736192789413702e-01  -1.9233647029580878e-01  -1.7666594452881645e-01  -1.6038229046525518e-01  -1.4351985431010902e-01  -1.2611496596308147e-01  -1.0820553133810121e-01  -8.9830652064168653e-02  -7.1030282813571433e-02  -5.1844933399632205e-02  -3.2315419060604443e-02  -1.2482658398013184e-02  7.6124853003447443e-03  2.7929326750278656e-02  4.8427454981867013e-02  6.9066813999321713e-02  8.9807778526769994e-02  1.1061123458914800e-01  1.3143867291541109e-01  1.5225230089425557e-01  1.7301517634831309e-01  1.9369136397455020e-01  2.1424611311495240e-01  2.3464605368168057e-01  2.5485940559343911e-01  2.7485619594179006e-01  2.9460847719641020e-01  3.1409053893157268e-01  3.3327910463587263e-01  3.5215350395939610e-01  3.7069580907162480e-01  3.8889092153570415e-01  4.0672659335995226e-01  4.2419336331538848e-01  4.4128438890950955e-01  4.5799515873341257e-01  4.7432308332573148e-01  4.9026698773717009e-01  5.0582656262768533e-01  5.2100186180540720e-01  -3.5545508671849047e-01  -3.5530243726382538e-01  -3.5483992602302833e-01  -3.5405419820683276e-01  -3.5292404904466601e-01  -3.5142181516512949e-01  -3.4951500827247245e-01  -3.4716799238194174e-01  -3.4434355495963359e-01  -3.4100428581553727e-01  -3.3711373343538209e-01  -3.3263734588259630e-01  -3.2754322218993426e-01  -3.2180270543961914e-01  -3.1539084643000320e-01  -3.0828676134692762e-01  -3.0047390073987745e-01  -2.9194024154068171e-01  -2.8267840929863053e-01  -2.7268573434017046e-01  -2.6196424317339312e-01  -2.5052058510643377e-01  -2.3836589370229710e-01  -2.2551558331737193e-01  -2.1198908250573303e-01  -1.9780950839461101e-01  -1.8300328904006749e-01  -1.6759974395074931e-01  -1.5163063603097066e-01  -1.3512971070289975e-01  -1.1813223949190078e-01  -1.0067458555095644e-01  -8.2793807262236868e-02  -6.4527313191035135e-02  -4.5912577505146622e-02  -2.6986919936486095e-02  -7.7873490153947253e-03  1.1649537734011917e-02  3.1287607121493241e-02  5.1091210499960564e-02  7.1025185561391979e-02  9.1054854230772767e-02  1.1114602962315631e-01  1.3126504246405044e-01  1.5137879419974642e-01  1.7145484065426331e-01  1.9146150687661523e-01  2.1136803102000046e-01  2.3114473284121437e-01  2.5076320073092229e-01  2.7019649001889151e-01  2.8941932451443986e-01  3.0840829267782738e-01  3.2714202930278030e-01  3.4560137297583188e-01  3.6376948877888260e-01  3.8163194476011225e-01  3.9917672990005149e-01  4.1639420133492366e-01  4.3327695070415062e-01  4.4981958534409683e-01  4.6601843112217217e-01  4.8187117992852069e-01  4.9737652318541725e-01  5.1253382694334426e-01  -3.4954764276889289e-01  -3.4937073502785904e-01  -3.4883642617942806e-01  -3.4793418952193100e-01  -3.4664721366870316e-01  -3.4495339253993862e-01  -3.4282652332639635e-01  -3.4023758415262201e-01  -3.3715598493452115e-01  -3.3355071901855093e-01  -3.2939137761014231e-01  -3.2464901604266455e-01  -3.1929687805497420e-01  -3.1331099253343414e-01  -3.0667065925268217e-01  -2.9935883862169482e-01  -2.9136245723416465e-01  -2.8267263733350256e-01  -2.7328485480137821e-01  -2.6319902732419415e-01  -2.5241953219458801e-01  -2.4095515191537512e-01  -2.2881894551432569e-01  -2.1602804433857484e-01  -2.0260337310054094e-01  -1.8856930001014086e-01  -1.7395322372636463e-01  -1.5878510921330152e-01  -1.4309698886818609e-01  -1.2692244888951079e-01  -1.1029612315604950e-01  -9.3253217380095246e-02  -7.5829084676140454e-02  -5.8058869933210938e-02  -3.9977234798296353e-02  -2.1618168263933424e-02  -3.0148806027329310e-03  1.5800228423192637e-02  3.4795541730150967e-02  5.3940155858749436e-02  7.3203790706792560e-02  9.2556697536011617e-02  1.1196958238076504e-01  1.3141355829072843e-01  1.5086013540337134e-01  1.7028125325365079e-01  1.8964935547871620e-01  2.0893750350382706e-01  2.2811952307220543e-01  2.4717017562109347e-01  2.6606534540443211e-01  2.8478223274130082e-01  3.0329954362326533e-01  3.2159766595232131e-01  3.3965882276549786e-01  3.5746719288418155e-01  3.7500898959467610e-01  3.9227248850345736e-01  4.0924799713729287e-01  4.2592776191053794e-01  4.4230581351294584e-01  4.5837775990973212e-01  4.7414054628695507e-01  4.8959221125251584e-01  5.0473167502979699e-01  -3.4367401451895480e-01  -3.4347651510149724e-01  -3.4288116559279491e-01  -3.4187957682980580e-01  -3.4045829513914394e-01  -3.3859952814696803e-01  -3.3628204420159719e-01  -3.3348216099527622e-01  -3.3017474809451403e-01  -3.2633418628778460e-01  -3.2193524746698970e-01  -3.1695387718933687e-01  -3.1136787555954265e-01  -3.0515748021753197e-01  -2.9830585888766570e-01  -2.9079951945555116e-01  -2.8262864411482491e-01  -2.7378735171046753e-01  -2.6427388965892745e-01  -2.5409075421651467e-01  -2.4324473575890734e-01  -2.3174688444123473e-01  -2.1961239141423547e-01  -2.0686038191064438e-01  -1.9351361912145568e-01  -1.7959812182875531e-01  -1.6514270401136849e-01  -1.5017845061182919e-01  -1.3473814964558445e-01  -1.1885570599331254e-01  -1.0256556566591694e-01  -8.5902180320334379e-02  -6.8899539871320262e-02  -5.1590796136791579e-02  -3.4007992978813281e-02  -1.6181909187484585e-02  1.8579894741531427e-03  2.0083501857407499e-02  3.8467566907744714e-02  5.6984088188741067e-02  7.5607734505951443e-02  9.4313742649802287e-02  1.1307774475145363e-01  1.3187563746858311e-01  1.5068350405228700e-01  1.6947759412414243e-01  1.8823436039110719e-01  2.0693054699405952e-01  2.2554332092576662e-01  2.4405043595055018e-01  2.6243041753662671e-01  2.8066275721066186e-01  2.9872810517978121e-01  3.1660845079214356e-01  3.3428728125386081e-01  3.5174970992627835e-01  3.6898256656221506e-01  3.8597444321253921e-01  4.0271569158047177e-01  4.1919837070743537e-01  4.3541614831741943e-01  4.5136416484323211e-01  4.6703887541356093e-01  4.8243789050833957e-01  4.9755983878015220e-01  -3.3787589063890311e-01  -3.3766070821313821e-01  -3.3701287193354412e-01  -3.3592563631398425e-01  -3.3438815130331406e-01  -3.3238600904406218e-01  -3.2990193457087841e-01  -3.2691656383909073e-01  -3.2340925577369972e-01  -3.1935889465909373e-01  -3.1474465164542303e-01  -3.0954668633050331e-01  -3.0374677928015720e-01  -2.9732889315093430e-01  -2.9027966383593679e-01  -2.8258882429835969e-01  -2.7424956316434584e-01  -2.6525881835870319e-01  -2.5561750363967423e-01  -2.4533066331183606e-01  -2.3440754813306316e-01  -2.2286160394671595e-01  -2.1071036432236906e-01  -1.9797523988550281e-01  -1.8468120033846663e-01  -1.7085635047912356e-01  -1.5653140855925360e-01  -1.4173910348580371e-01  -1.2651351571034120e-01  -1.1088939399223