<?xml version="1.0"?>
<VTKFile type="UnstructuredGrid"  version="0.1"  >
<UnstructuredGrid>
<Piece  NumberOfPoints="4225" NumberOfCells="8192">
<Points>
<DataArray  type="Float64"  NumberOfComponents="3"  format="ascii">0 0 0  0.015625 0 0  0.03125 0 0  0.046875 0 0  0.0625 0 0  0.078125 0 0  0.09375 0 0  0.109375 0 0  0.125 0 0  0.140625 0 0  0.15625 0 0  0.171875 0 0  0.1875 0 0  0.203125 0 0  0.21875 0 0  0.234375 0 0  0.25 0 0  0.265625 0 0  0.28125 0 0  0.296875 0 0  0.3125 0 0  0.328125 0 0  0.34375 0 0  0.359375 0 0  0.375 0 0  0.390625 0 0  0.40625 0 0  0.421875 0 0  0.4375 0 0  0.453125 0 0  0.46875 0 0  0.484375 0 0  0.5 0 0  0.515625 0 0  0.53125 0 0  0.546875 0 0  0.5625 0 0  0.578125 0 0  0.59375 0 0  0.609375 0 0  0.625 0 0  0.640625 0 0  0.65625 0 0  0.671875 0 0  0.6875 0 0  0.703125 0 0  0.71875 0 0  0.734375 0 0  0.75 0 0  0.765625 0 0  0.78125 0 0  0.796875 0 0  0.8125 0 0  0.828125 0 0  0.84375 0 0  0.859375 0 0  0.875 0 0  0.890625 0 0  0.90625 0 0  0.921875 0 0  0.9375 0 0  0.953125 0 0  0.96875 0 0  0.984375 0 0  1 0 0  0 0.015625 0  0.015625 0.015625 0  0.03125 0.015625 0  0.046875 0.015625 0  0.0625 0.015625 0  0.078125 0.015625 0  0.09375 0.015625 0  0.109375 0.015625 0  0.125 0.015625 0  0.140625 0.015625 0  0.15625 0.015625 0  0.171875 0.015625 0  0.1875 0.015625 0  0.203125 0.015625 0  0.21875 0.015625 0  0.234375 0.015625 0  0.25 0.015625 0  0.265625 0.015625 0  0.28125 0.015625 0  0.296875 0.015625 0  0.3125 0.015625 0  0.328125 0.015625 0  0.34375 0.015625 0  0.359375 0.015625 0  0.375 0.015625 0  0.390625 0.015625 0  0.40625 0.015625 0  0.421875 0.015625 0  0.4375 0.015625 0  0.453125 0.015625 0  0.46875 0.015625 0  0.484375 0.015625 0  0.5 0.015625 0  0.515625 0.015625 0  0.53125 0.015625 0  0.546875 0.015625 0  0.5625 0.015625 0  0.578125 0.015625 0  0.59375 0.015625 0  0.609375 0.015625 0  0.625 0.015625 0  0.640625 0.015625 0  0.65625 0.015625 0  0.671875 0.015625 0  0.6875 0.015625 0  0.703125 0.015625 0  0.71875 0.015625 0  0.734375 0.015625 0  0.75 0.015625 0  0.765625 0.015625 0  0.78125 0.015625 0  0.796875 0.015625 0  0.8125 0.015625 0  0.828125 0.015625 0  0.84375 0.015625 0  0.859375 0.015625 0  0.875 0.015625 0  0.890625 0.015625 0  0.90625 0.015625 0  0.921875 0.015625 0  0.9375 0.015625 0  0.953125 0.015625 0  0.96875 0.015625 0  0.984375 0.015625 0  1 0.015625 0  0 0.03125 0  0.015625 0.03125 0  0.03125 0.03125 0  0.046875 0.03125 0  0.0625 0.03125 0  0.078125 0.03125 0  0.09375 0.03125 0  0.109375 0.03125 0  0.125 0.03125 0  0.140625 0.03125 0  0.15625 0.03125 0  0.171875 0.03125 0  0.1875 0.03125 0  0.203125 0.03125 0  0.21875 0.03125 0  0.234375 0.03125 0  0.25 0.03125 0  0.265625 0.03125 0  0.28125 0.03125 0  0.296875 0.03125 0  0.3125 0.03125 0  0.328125 0.03125 0  0.34375 0.03125 0  0.359375 0.03125 0  0.375 0.03125 0  0.390625 0.03125 0  0.40625 0.03125 0  0.421875 0.03125 0  0.4375 0.03125 0  0.453125 0.03125 0  0.46875 0.03125 0  0.484375 0.03125 0  0.5 0.03125 0  0.515625 0.03125 0  0.53125 0.03125 0  0.546875 0.03125 0  0.5625 0.03125 0  0.578125 0.03125 0  0.59375 0.03125 0  0.609375 0.03125 0  0.625 0.03125 0  0.640625 0.03125 0  0.65625 0.03125 0  0.671875 0.03125 0  0.6875 0.03125 0  0.703125 0.03125 0  0.71875 0.03125 0  0.734375 0.03125 0  0.75 0.03125 0  0.765625 0.03125 0  0.78125 0.03125 0  0.796875 0.03125 0  0.8125 0.03125 0  0.828125 0.03125 0  0.84375 0.03125 0  0.859375 0.03125 0  0.875 0.03125 0  0.890625 0.03125 0  0.90625 0.03125 0  0.921875 0.03125 0  0.9375 0.03125 0  0.953125 0.03125 0  0.96875 0.03125 0  0.984375 0.03125 0  1 0.03125 0  0 0.046875 0  0.015625 0.046875 0  0.03125 0.046875 0  0.046875 0.046875 0  0.0625 0.046875 0  0.078125 0.046875 0  0.09375 0.046875 0  0.109375 0.046875 0  0.125 0.046875 0  0.140625 0.046875 0  0.15625 0.046875 0  0.171875 0.046875 0  0.1875 0.046875 0  0.203125 0.046875 0  0.21875 0.046875 0  0.234375 0.046875 0  0.25 0.046875 0  0.265625 0.046875 0  0.28125 0.046875 0  0.296875 0.046875 0  0.3125 0.046875 0  0.328125 0.046875 0  0.34375 0.046875 0  0.359375 0.046875 0  0.375 0.046875 0  0.390625 0.046875 0  0.40625 0.046875 0  0.421875 0.046875 0  0.4375 0.046875 0  0.453125 0.046875 0  0.46875 0.046875 0  0.484375 0.046875 0  0.5 0.046875 0  0.515625 0.046875 0  0.53125 0.046875 0  0.546875 0.046875 0  0.5625 0.046875 0  0.578125 0.046875 0  0.59375 0.046875 0  0.609375 0.046875 0  0.625 0.046875 0  0.640625 0.046875 0  0.65625 0.046875 0  0.671875 0.046875 0  0.6875 0.046875 0  0.703125 0.046875 0  0.71875 0.046875 0  0.734375 0.046875 0  0.75 0.046875 0  0.765625 0.046875 0  0.78125 0.046875 0  0.796875 0.046875 0  0.8125 0.046875 0  0.828125 0.046875 0  0.84375 0.046875 0  0.859375 0.046875 0  0.875 0.046875 0  0.890625 0.046875 0  0.90625 0.046875 0  0.921875 0.046875 0  0.9375 0.046875 0  0.953125 0.046875 0  0.96875 0.046875 0  0.984375 0.046875 0  1 0.046875 0  0 0.0625 0  0.015625 0.0625 0  0.03125 0.0625 0  0.046875 0.0625 0  0.0625 0.0625 0  0.078125 0.0625 0  0.09375 0.0625 0  0.109375 0.0625 0  0.125 0.0625 0  0.140625 0.0625 0  0.15625 0.0625 0  0.171875 0.0625 0  0.1875 0.0625 0  0.203125 0.0625 0  0.21875 0.0625 0  0.234375 0.0625 0  0.25 0.0625 0  0.265625 0.0625 0  0.28125 0.0625 0  0.296875 0.0625 0  0.3125 0.0625 0  0.328125 0.0625 0  0.34375 0.0625 0  0.359375 0.0625 0  0.375 0.0625 0  0.390625 0.0625 0  0.40625 0.0625 0  0.421875 0.0625 0  0.4375 0.0625 0  0.453125 0.0625 0  0.46875 0.0625 0  0.484375 0.0625 0  0.5 0.0625 0  0.515625 0.0625 0  0.53125 0.0625 0  0.546875 0.0625 0  0.5625 0.0625 0  0.578125 0.0625 0  0.59375 0.0625 0  0.609375 0.0625 0  0.625 0.0625 0  0.640625 0.0625 0  0.65625 0.0625 0  0.671875 0.0625 0  0.6875 0.0625 0  0.703125 0.0625 0  0.71875 0.0625 0  0.734375 0.0625 0  0.75 0.0625 0  0.765625 0.0625 0  0.78125 0.0625 0  0.796875 0.0625 0  0.8125 0.0625 0  0.828125 0.0625 0  0.84375 0.0625 0  0.859375 0.0625 0  0.875 0.0625 0  0.890625 0.0625 0  0.90625 0.0625 0  0.921875 0.0625 0  0.9375 0.0625 0  0.953125 0.0625 0  0.96875 0.0625 0  0.984375 0.0625 0  1 0.0625 0  0 0.078125 0  0.015625 0.078125 0  0.03125 0.078125 0  0.046875 0.078125 0  0.0625 0.078125 0  0.078125 0.078125 0  0.09375 0.078125 0  0.109375 0.078125 0  0.125 0.078125 0  0.140625 0.078125 0  0.15625 0.078125 0  0.171875 0.078125 0  0.1875 0.078125 0  0.203125 0.078125 0  0.21875 0.078125 0  0.234375 0.078125 0  0.25 0.078125 0  0.265625 0.078125 0  0.28125 0.078125 0  0.296875 0.078125 0  0.3125 0.078125 0  0.328125 0.078125 0  0.34375 0.078125 0  0.359375 0.078125 0  0.375 0.078125 0  0.390625 0.078125 0  0.40625 0.078125 0  0.421875 0.078125 0  0.4375 0.078125 0  0.453125 0.078125 0  0.46875 0.078125 0  0.484375 0.078125 0  0.5 0.078125 0  0.515625 0.078125 0  0.53125 0.078125 0  0.546875 0.078125 0  0.5625 0.078125 0  0.578125 0.078125 0  0.59375 0.078125 0  0.609375 0.078125 0  0.625 0.078125 0  0.640625 0.078125 0  0.65625 0.078125 0  0.671875 0.078125 0  0.6875 0.078125 0  0.703125 0.078125 0  0.71875 0.078125 0  0.734375 0.078125 0  0.75 0.078125 0  0.765625 0.078125 0  0.78125 0.078125 0  0.796875 0.078125 0  0.8125 0.078125 0  0.828125 0.078125 0  0.84375 0.078125 0  0.859375 0.078125 0  0.875 0.078125 0  0.890625 0.078125 0  0.90625 0.078125 0  0.921875 0.078125 0  0.9375 0.078125 0  0.953125 0.078125 0  0.96875 0.078125 0  0.984375 0.078125 0  1 0.078125 0  0 0.09375 0  0.015625 0.09375 0  0.03125 0.09375 0  0.046875 0.09375 0  0.0625 0.09375 0  0.078125 0.09375 0  0.09375 0.09375 0  0.109375 0.09375 0  0.125 0.09375 0  0.140625 0.09375 0  0.15625 0.09375 0  0.171875 0.09375 0  0.1875 0.09375 0  0.203125 0.09375 0  0.21875 0.09375 0  0.234375 0.09375 0  0.25 0.09375 0  0.265625 0.09375 0  0.28125 0.09375 0  0.296875 0.09375 0  0.3125 0.09375 0  0.328125 0.09375 0  0.34375 0.09375 0  0.359375 0.09375 0  0.375 0.09375 0  0.390625 0.09375 0  0.40625 0.09375 0  0.421875 0.09375 0  0.4375 0.09375 0  0.453125 0.09375 0  0.46875 0.09375 0  0.484375 0.09375 0  0.5 0.09375 0  0.515625 0.09375 0  0.53125 0.09375 0  0.546875 0.09375 0  0.5625 0.09375 0  0.578125 0.09375 0  0.59375 0.09375 0  0.609375 0.09375 0  0.625 0.09375 0  0.640625 0.09375 0  0.65625 0.09375 0  0.671875 0.09375 0  0.6875 0.09375 0  0.703125 0.09375 0  0.71875 0.09375 0  0.734375 0.09375 0  0.75 0.09375 0  0.765625 0.09375 0  0.78125 0.09375 0  0.796875 0.09375 0  0.8125 0.09375 0  0.828125 0.09375 0  0.84375 0.09375 0  0.859375 0.09375 0  0.875 0.09375 0  0.890625 0.09375 0  0.90625 0.09375 0  0.921875 0.09375 0  0.9375 0.09375 0  0.953125 0.09375 0  0.96875 0.09375 0  0.984375 0.09375 0  1 0.09375 0  0 0.109375 0  0.015625 0.109375 0  0.03125 0.109375 0  0.046875 0.109375 0  0.0625 0.109375 0  0.078125 0.109375 0  0.09375 0.109375 0  0.109375 0.109375 0  0.125 0.109375 0  0.140625 0.109375 0  0.15625 0.109375 0  0.171875 0.109375 0  0.1875 0.109375 0  0.203125 0.109375 0  0.21875 0.109375 0  0.234375 0.109375 0  0.25 0.109375 0  0.265625 0.109375 0  0.28125 0.109375 0  0.296875 0.109375 0  0.3125 0.109375 0  0.328125 0.109375 0  0.34375 0.109375 0  0.359375 0.109375 0  0.375 0.109375 0  0.390625 0.109375 0  0.40625 0.109375 0  0.421875 0.109375 0  0.4375 0.109375 0  0.453125 0.109375 0  0.46875 0.109375 0  0.484375 0.109375 0  0.5 0.109375 0  0.515625 0.109375 0  0.53125 0.109375 0  0.546875 0.109375 0  0.5625 0.109375 0  0.578125 0.109375 0  0.59375 0.109375 0  0.609375 0.109375 0  0.625 0.109375 0  0.640625 0.109375 0  0.65625 0.109375 0  0.671875 0.109375 0  0.6875 0.109375 0  0.703125 0.109375 0  0.71875 0.109375 0  0.734375 0.109375 0  0.75 0.109375 0  0.765625 0.109375 0  0.78125 0.109375 0  0.796875 0.109375 0  0.8125 0.109375 0  0.828125 0.109375 0  0.84375 0.109375 0  0.859375 0.109375 0  0.875 0.109375 0  0.890625 0.109375 0  0.90625 0.109375 0  0.921875 0.109375 0  0.9375 0.109375 0  0.953125 0.109375 0  0.96875 0.109375 0  0.984375 0.109375 0  1 0.109375 0  0 0.125 0  0.015625 0.125 0  0.03125 0.125 0  0.046875 0.125 0  0.0625 0.125 0  0.078125 0.125 0  0.09375 0.125 0  0.109375 0.125 0  0.125 0.12
[...]
<PointData  Scalars="f_9"> 
<DataArray  type="Float64"  Name="f_9"  format="ascii">0.0000000000000000e+00  2.1122151711542692e-02  4.2141218291278315e-02  6.2954670381292127e-02  8.3461087127300188e-02  1.0356070285671816e-01  1.2315594476917766e-01  1.4215195880953901e-01  1.6045712103090984e-01  1.7798353192082972e-01  1.9464749135315015e-01  2.1036995203554121e-01  2.2507694954104046e-01  2.3870000723333645e-01  2.5117651461004981e-01  2.6245007778558110e-01  2.7247084100398444e-01  2.8119577820163016e-01  2.8858895371889492e-01  2.9462175128152268e-01  2.9927307033082978e-01  3.0252948867756430e-01  3.0438539029326461e-01  3.0484305684898383e-01  3.0391272138581710e-01  3.0161258228398852e-01  2.9796877552291612e-01  2.9301530313319113e-01  2.8679391577272872e-01  2.7935394754954213e-01  2.7075210159028795e-01  2.6105218543190567e-01  2.5032479609259439e-01  2.3864695564028279e-01  2.2610169918779757e-01  2.1277761845747398e-01  1.9876836531992981e-01  1.8417212096764154e-01  1.6909103758657182e-01  1.5363066050597909e-01  1.3789933982695823e-01  1.2200764147091317e-01  1.0606776849918742e-01  9.0193004521152212e-02  7.4497192161457393e-02  5.9094261085589489e-02  4.4097822251590257e-02  2.9620848245054242e-02  1.5775464325804067e-02  2.6728820269048739e-03  -9.5764818364472114e-03  -2.0862640823532841e-02  -3.1075342311181690e-02  -4.0102908186023890e-02  -4.7830409243712790e-02  -5.4136842756205665e-02  -5.8890750704885773e-02  -6.1943265928015218e-02  -6.3116629714486838e-02  -6.2184044175977830e-02  -5.8831043218091926e-02  -5.2571581546659675e-02  -4.2533536790818949e-02  -2.6799565567559427e-02  0.0000000000000000e+00  0.0000000000000000e+00  1.9954852708371353e-02  3.9813777833532654e-02  5.9481359728972137e-02  7.8863203835916829e-02  9.7866440298519902e-02  1.1640021936193383e-01  1.3437619597415507e-01  1.5170900114503186e-01  1.6831669777548069e-01  1.8412121885239369e-01  1.9904878610435928e-01  2.1303030742329146e-01  2.2600175156912219e-01  2.3790449887933435e-01  2.4868566689163679e-01  2.5829840994512521e-01  2.6670219194133749e-01  2.7386303151097452e-01  2.7975371883593458e-01  2.8435400331425886e-01  2.8765075112705335e-01  2.8963807157726629e-01  2.9031741083384244e-01  2.8969761145306466e-01  2.8779493579183235e-01  2.8463305121217430e-01  2.8024297484385169e-01  2.7466297566468995e-01  2.6793843181474991e-01  2.6012164141041988e-01  2.5127158568459046e-01  2.4145364404925238e-01  2.3073926163902322e-01  2.1920557101286475e-01  2.0693497091736648e-01  1.9401466629105030e-01  1.8053617495696683e-01  1.6659480765947232e-01  1.5228912921473553e-01  1.3772040954965750e-01  1.2299207431472219e-01  1.0820916561941403e-01  9.3477824337378543e-02  7.8904806487815504e-02  6.4597047596818377e-02  5.0661290923968094e-02  3.7203798352672506e-02  2.4330167090792221e-02  1.2145281866375921e-02  7.5344220678392852e-04  -9.7412804510801400e-03  -1.9234377513249121e-02  -2.7619814187161418e-02  -3.4788340292057726e-02  -4.0624923041789648e-02  -4.5004848599682866e-02  -4.7787726528220616e-02  -4.8808059028789881e-02  -4.7859988061224129e-02  -4.4672056681571252e-02  -3.8865944079802990e-02  -2.9898994389489515e-02  -1.7056730139553795e-02  0.0000000000000000e+00  0.0000000000000000e+00  1.8883481288229569e-02  3.7677680605130354e-02  5.6293786864372516e-02  7.4643928187328443e-02  9.2641635136496245e-02  1.1020229640014804e-01  1.2724360456946887e-01  1.4368598978029065e-01  1.5945303914955353e-01  1.7447190011770730e-01  1.8867366600703722e-01  2.0199374231560990e-01  2.1437219247895087e-01  2.2575406203693643e-01  2.3608968033055308e-01  2.4533493900992523e-01  2.5345154674858100e-01  2.6040725961695627e-01  2.6617608655986036e-01  2.7073846934044066e-01  2.7408143615445180e-01  2.7619872788753397e-01  2.7709089569741918e-01  2.7676536827481729e-01  2.7523648680328539e-01  2.7252550534052056e-01  2.6866055412819007e-01  2.6367656325364058e-01  2.5761514418029186e-01  2.5052442697067301e-01  2.4245885156840652e-01  2.3347891228514756e-01  2.2365085563611700e-01  2.1304633284313182e-01  2.0174200961948524e-01  1.8981913719873139e-01  1.7736308989947028e-01  1.6446287576819590e-01  1.5121062796616574e-01  1.3770108554202148e-01  1.2403107306672966e-01  1.1029898934099172e-01  9.6604316091459641e-02  8.3047158360596410e-02  6.9727829314846543e-02  5.6746493643121371e-02  4.4202885851363505e-02  3.2196122928221091e-02  2.0824635546001769e-02  1.0186248860076503e-02  3.7845407848107523e-04  -8.5010732571962500e-03  -1.6353630850492195e-02  -2.3078214750724326e-02  -2.8569660551078884e-02  -3.2715994141803713e-02  -3.5394732566282727e-02  -3.6467891816538853e-02  -3.5775792361341457e-02  -3.3131251368590228e-02  -2.8321143702202650e-02  -2.1139766548128866e-02  -1.1528360601331059e-02  0.0000000000000000e+00  0.0000000000000000e+00  1.7901391839038123e-02  3.5719676433593146e-02  5.3372178934435244e-02  7.0777086909284942e-02  8.7853875653666813e-02  1.0452372652066708e-01  1.2070993610095360e-01  1.3633831421664971e-01  1.5133756885318592e-01  1.6563967633835353e-01  1.7918023528245466e-01  1.9189880301117962e-01  2.0373921344543169e-01  2.1464987559967630e-01  2.2458405207055132e-01  2.3350011705676221e-01  2.4136179357479251e-01  2.4813836959740238e-01  2.5380489282893365e-01  2.5834234373150056e-01  2.6173778622264282e-01  2.6398449517884759e-01  2.6508205951136643e-01  2.6503645915364993e-01  2.6386011384894159e-01  2.6157190119953966e-01  2.5819714109263792e-01  2.5376754341256447e-01  2.4832111594436154e-01  2.4190202961753596e-01  2.3456043876204932e-01  2.2635225485752269e-01  2.1733887332970908e-01  2.0758685423656090e-01  1.9716755911762945e-01  1.8615674776827801e-01  1.7463414015359757e-01  1.6268295001335015e-01  1.5038939786519762e-01  1.3784221205302238e-01  1.2513212720714670e-01  1.1235139001451176e-01  9.9593282602108868e-02  8.6951674206535837e-02  7.4520612249350637e-02  6.2393964592255408e-02  5.0665125751246605e-02  3.9426801354601734e-02  2.8770887279110185e-02  1.8788462793313650e-02  9.5699206426785831e-03  1.2052609336440005e-03  -6.2154214027038170e-03  -1.2601227425190223e-02  -1.7859510336973777e-02  -2.1894734887937310e-02  -2.4607317799352445e-02  -2.5892983320905238e-02  -2.5644038204864907e-02  -2.3756012732239703e-02  -2.0147612813783605e-02  -1.4810567500220851e-02  -7.9169457179881150e-03  0.0000000000000000e+00  0.0000000000000000e+00  1.7002409633555347e-02  3.3927454354144966e-02  5.0698165527167126e-02  6.7238364855071814e-02  8.3473054035280728e-02  9.9328797903285831e-02  1.1473409905132795e-01  1.2961976204935544e-01  1.4391924556172939e-01  1.5756900084727704e-01  1.7050879534741351e-01  1.8268202030112335e-01  1.9403598156857388e-01  2.0452217308663165e-01  2.1409653260658662e-01  2.2271967956132416e-01  2.3035713505802818e-01  2.3697952407366174e-01  2.4256275992415799e-01  2.4708821096662195e-01  2.5054284926386233e-01  2.5291938058753294e-01  2.5421635466730691e-01  2.5443825403131459e-01  2.5359555916728516e-01  2.5170478712141531e-01  2.4878850011428977e-01  2.4487528036995901e-01  2.3999966720479826e-01  2.3420205257498988e-01  2.2752853178087648e-01  2.2003070688658438e-01  2.1176544161015301e-01  2.0279456791083592e-01  1.9318454615169289e-01  1.8300608243104882e-01  1.7233370833313189e-01  1.6124532983289272e-01  1.4982175331330722e-01  1.3814619756065452e-01  1.2630380117930332e-01  1.1438113513596995e-01  1.0246573015956159e-01  9.0645628562360914e-02  7.9008969792879885e-02  6.7643618749293699e-02  5.6636845608613616e-02  4.6075065625023712e-02  3.6043646858738981e-02  2.6626792718530440e-02  1.7907503699964085e-02  9.9676170896824366e-03  2.8879113295897933e-03  -3.2517634481336278e-03  -8.3724186210741222e-03  -1.2396117351093167e-02  -1.5246820464923681e-02  -1.6852685485768258e-02  -1.7151364416980237e-02  -1.6101148547863424e-02  -1.3702727323538940e-02  -1.0037944922477893e-02  -5.3288547711116884e-03  0.0000000000000000e+00  0.0000000000000000e+00  1.6180792339491632e-02  3.2289565819021003e-02  4.8254663958378990e-02  6.4005152935297155e-02  7.9471177703255208e-02  9.4584311956701000e-02  1.0927790006042573e-01  1.2348738920228138e-01  1.3715065020451431e-01  1.5020828563658262e-01  1.6260392410802008e-01  1.7428449987853542e-01  1.8520051719658098e-01  1.9530629905662378e-01  2.0456022033531485e-01  2.1292492550972325e-01  2.2036753135481901e-01  2.2685981513699469e-01  2.3237838883808026e-01  2.3690485983293189e-01  2.4042597818035888e-01  2.4293377025804902e-01  2.4442565787801651e-01  2.4490456128060883e-01  2.4437898356687207e-01  2.4286307326084611e-01  2.4037666088728812e-01  2.3694526481352352e-01  2.3260006124663257e-01  2.2737781329661580e-01  2.2132075448136701e-01  2.1447642298587488e-01  2.0689744436937577e-01  1.9864126215956687e-01  1.8976981775505830e-01  1.8034918311710937e-01  1.7044915169977459e-01  1.6014279478634924e-01  1.4950599174429816e-01  1.3861694360211060e-01  1.2755567976342880e-01  1.1640356762852079e-01  1.0524283444896723e-01  9.4156109973390856e-02  8.3225997417626860e-02  7.2534679042633388e-02  6.2163561105880540e-02  5.2192961003560578e-02  4.2701836681148561e-02  3.3767554173890900e-02  2.5465682216647207e-02  1.7869791070183261e-02  1.1051212275529354e-02  5.0786804481421349e-03  1.7716376860424463e-05  -4.0704955855467729e-03  -7.1311613088523461e-03  -9.1195737861231672e-03  -1.0007585453466928e-02  -9.7944897309967492e-03  -8.5242030161741915e-03  -6.3096300980342588e-03  -3.3605284454049900e-03  0.0000000000000000e+00  0.0000000000000000e+00  1.5431193902375573e-02  3.0795352617746675e-02  4.6025771539092458e-02  6.1056405198639453e-02  7.5822191835362610e-02  9.0259372063986945e-02  1.0430579985341332e-01  1.1790124417229211e-01  1.3098767984700102e-01  1.4350956640180623e-01  1.5541411391061991e-01  1.6665153518080988e-01  1.7717528390563486e-01  1.8694227875310268e-01  1.9591311369071512e-01  2.0405225515731251e-01  2.1132822695834419e-01  2.1771378394635565e-01  2.2318607561620918e-01  2.2772680065427611e-01  2.3132235319493250e-01  2.3396396102800371e-01  2.3564781525691675e-01  2.3637518994508111e-01  2.3615254915666273e-01  2.3499163758351810e-01  2.3290954977332817e-01  2.2992877198099795e-01  2.2607719001114690e-01  2.2138805624588825e-01  2.1589990946360654e-01  2.0965644209638185e-01  2.0270631121742394e-01  1.9510289168925934e-01  1.8690397236437167e-01  1.7817139879208793e-01  1.6897066831208563e-01  1.5937048548601240e-01  1.4944228736041165e-01  1.3925974895849721e-01  1.2889827963048126e-01  1.1843452048357488e-01  1.0794585214195146e-01  9.7509920650994619e-02  8.7204187520490112e-02  7.7105507725929057e-02  6.7289736887901214e-02  5.7831365612085177e-02  4.8803174665686094e-02  4.0275898538812450e-02  3.2317875757061201e-02  2.4994650109673642e-02  1.8368464683460341e-02  1.2497555658311283e-02  7.4350987285156543e-03  3.2275796378168175e-03  -8.7755565638691826e-05  -2.4868629860223951e-03  -3.9649139267533750e-03  -4.5450219305250388e-03  -4.2899649241338027e-03  -3.3158440139322539e-03  -1.8036289152579339e-03  0.0000000000000000e+00  0.0000000000000000e+00  1.4748630646529332e-02  2.9434879198471525e-02  4.3996664356990754e-02  5.8372504435639010e-02  7.2501812279718483e-02  8.6325184428101567e-02  9.9784682778302977e-02  1.1282410717274745e-01  1.2538925752387023e-01  1.3742818433915599e-01  1.4889142679484441e-01  1.5973223783750121e-01  1.6990679616184876e-01  1.7937440531274446e-01  1.8809768057450618e-01  1.9604272471949852e-01  2.0317929405802482e-01  2.0948095652073906e-01  2.1492524366094121e-01  2.1949379842861347e-01  2.2317252028181958e-01  2.2595170861405955e-01  2.2782620455947739e-01  2.2879552999716576e-01  2.2886402106348713e-01  2.2804095180346440e-01  2.2634064190802766e-01  2.2378254099393899e-01  2.2039128080726306e-01  2.1619668627629640e-01  2.1123373666427034e-01  2.0554246925228661e-01  1.9916781999009089e-01  1.9215939824578954e-01  1.8457119592561813e-01  1.7646123451348131e-01  1.6789115666523280e-01  1.5892577157696261e-01  1.4963256518950424e-01  1.4008118724878205e-01  1.3034292727506613e-01  1.2049019066032222e-01  1.1059598453504239e-01  1.0073342087432950e-01  9.0975241678844784e-02  8.1393368036035030e-02  7.2058471398588411e-02  6.3039561315710188e-02  5.4403578723554079e-02  4.6214977089438954e-02  3.8535264221308319e-02  3.1422463991250510e-02  2.4930437695299689e-02  1.9107976999750670e-02  1.3997542216270944e-02  9.6334703959483504e-03  6.0394220763490027e-03  3.2247911635047985e-03  1.1798145733835971e-03  -1.3071918607552002e-04  -7.7479075880723474e-04  -8.6015212946690788e-04  -5.3814320700538781e-04  0.0000000000000000e+00  0.0000000000000000e+00  1.4128449474623526e-02  2.8198869150291246e-02  4.2153502209059279e-02  5.5935135815916123e-02  6.9487368241791442e-02  8.2754870251752419e-02  9.5683639030086379e-02  1.0822124307679282e-01  1.2031705672060308e-01  1.3192248315591387e-01  1.4299116522859909e-01  1.5347918357093679e-01  1.6334524211851445e-01  1.7255084152678868e-01  1.8106044152928399e-01  1.8884161381981540e-01  1.9586518756032828e-01  2.0210539006045503e-01  2.0753998547454058e-01  2.1215041443291263e-01  2.1592193727672812e-01  2.1884378291687176e-01  2.2090930422877744e-01  2.2211613931357121e-01  2.2246637595319765e-01  2.2196671429306347e-01  2.2062862041026390e-01  2.1846846124514649e-01  2.1550760970072469e-01  2.1177250785007398e-01  2.0729467637478310e-01  2.0211065971249523e-01  1.9626189889336920e-01  1.8979452750679499e-01  1.8275909032902604e-01  1.7521018842785605e-01  1.6720605857523074e-01  1.5880809811209712e-01  1.5008034869054532e-01  1.4108895337666744e-01  1.3190160139883905e-01  1.2258697347422741e-01  1.1321419834261945e-01  1.0385232812368068e-01  9.4569836614562336e-02  8.5434140807406300e-02  7.6511141759019241e-02  6.7864776364143772e-02  5.9556566272932772e-02  5.1645143672992597e-02  4.4185725269631798e-02  3.7229494752141642e-02  3.0822839533136151e-02  2.5006369128789979e-02  1.9813620833571306e-02  1.5269336577587901e-02  1.1387181719394866e-02  8.1667906721548372e-03  5.5901000760355734e-03  3.6171212862751065e-03  2.1816731618080976e-03  1.1881694410925357e-03  5.1120820681508044e-04  0.0000000000000000e+00  0.0000000000000000e+00  1.3566298082382378e-02  2.7078645678551984e-02  4.0483339430225730e-02  5.3727168211741505e-02  6.6757654297240759e-02  7.9523288693305036e-02  9.1973758873765563e-02  1.0406016731803598e-01  1.1573523947184805e-01  1.2695352002712965e-01  1.3767155676411044e-01  1.4784807162142016e-01  1.5744411916466108e-01  1.6642323321142519e-01  1.7475156303275546e-01  1.8239800126538638e-01  1.8933430639395923e-01  1.9553522333162265e-01  2.0097860614793295e-01  2.0564554724709394e-01  2.0952051715403125e-01  2.1259151838920140e-01  2.1485025560136911e-01  2.1629232213528654e-01  2.1691740058217510e-01  2.1672947175191001e-01  2.1573702319357221e-01  2.1395324525619655e-01  2.1139620016625085e-01  2.0808894814100909e-01  2.0405961451378934e-01  1.9934138341633451e-01  1.9397240673011701e-01  1.8799562153272639e-01  1.8145847466755607e-01  1.7441255874869180e-01  1.6691316922107122e-01  1.5901879642542707e-01  1.5079056951186454e-01  1.4229167025714259e-01  1.3358673434793997e-01  1.2474125567674182e-01  1.1582100598139591e-01  1.0689147812832946e-01  9.8017356856223509e-02  8.9262016133736174e-02  8.0687037574953768e-02  7.2351739573091975e-02  6.4312701775501607e-02  5.6623263927370007e-02  4.9332971594550808e-02  4.2486933530301474e-02  3.6125046433291598e-02  3.0281033154197886e-02  2.4981231947174588e-02  2.0243071407287996e-02  1.6073176475718983e-02  1.2465089151695381e-02  9.3966734692475743e-03  6.8274309382230581e-03  4.6961926011981226e-03  2.9199484874469473e-03  1.3948065752048822e-03  0.0000000000000000e+00  0.0000000000000000e+00  1.3058097142239787e-02  2.6066075979759146e-02  3.8974041475092695e-02  5.1732543010998472e-02  6.4292791471662142e-02  7.6606870264940174e-02  8.8627938437661535e-02  1.0031042419575005e-01  1.1161020735786226e-01  1.2248478955727408e-01  1.3289345137614283e-01  1.4279739606465089e-01  1.5215988007980194e-01  1.6094633138527881e-01  1.6912445728518885e-01  1.7666434450336543e-01  1.8353855522201454e-01  1.8972222377911091e-01  1.9519315957163519e-01  1.9993196225876400e-01  2.0392215541177378e-01  2.0715034411418279e-01  2.0960640050347226e-01  2.1128367876611498e-01  2.1217925767481935e-01  2.1229420457650081e-01  2.1163385016455441e-01  2.1020805892197758e-01  2.0803147642713044e-01  2.0512373240454129e-01  2.0150957800645933e-01  1.9721893763531151e-01  1.9228685966766251e-01  1.8675335638452900e-01  1.8066313061290692e-01  1.7406519418877414e-01  1.6701239043832738e-01  1.5956083859737655e-01  1.5176932181994779e-01  1.4369864184243278e-01  1.3541096247590217e-01  1.2696916119543800e-01  1.1843620368357953e-01  1.0987455085465248e-01  1.0134560219896098e-01  9.2909173680546880e-02  8.4623003163025540e-02  7.6542271499553907e-02  6.8719122919353573e-02  6.1202163992791034e-02  5.4035916083085569e-02  4.7260191767997332e-02  4.0909361571345733e-02  3.5011474481082418e-02  2.9587196251887972e-02  2.4648537164208693e-02  2.0197361717199918e-02  1.6223714964856983e-02  1.2704073173631503e-02  9.5997361211277721e-03  6.8557176799289481e-03  4.4006252653163470e-03  2.1480695746909418e-03  0.0000000000000000e+00  0.0000000000000000e+00  1.2600014447940334e-02  2.5153519499660975e-02  3.7614207226598188e-02  4.9936170380468367e-02  6.2074097328756163e-02  7.3983460583266519e-02  8.5620696936001203e-02  9.6943377361272509e-02  1.0791036504720465e-01  1.1848196020102728e-01  1.2862003065304295e-01  1.3828812779023292e-01  1.4745158801048183e-01  1.5607762072802692e-01  1.6413538499518507e-01  1.7159605802812644e-01  1.7843290029300457e-01  1.8462132322990221e-01  1.9013896701003369e-01  1.9496579671477157e-01  1.9908422571676507e-01  2.0247927453246461e-01  2.0513877172678377e-01  2.0705360040311660e-01  2.0821798939105549e-01  2.0862984266415979e-01  2.0829109425442061e-01  2.0720806969244160e-01  2.0539182966945871e-01  2.0285846809673269e-01  1.9962933580189032e-01  1.9573116322079620e-01  1.9119606065827072e-01  1.8606138255957988e-01  1.8036945187416289e-01  1.7416715081353398e-01  1.6750539381003546e-01  1.6043850609253835e-01  1.5302353614384931e-01  1.4531953196932401e-01  1.3738680964086264e-01  1.2928623845676954e-01  1.2107856103375308e-01  1.1282375959870335e-01  1.0458047250468111e-01  9.6405458214280954e-02  8.8353098087664381e-02  8.0474924445971804e-02  7.2819156517607925e-02  6.5430223873097076e-02  5.8348254691535040e-02  5.1608504727304862e-02  4.5240702559081858e-02  3.9268288561934227e-02  3.3707530788633241e-02  2.8566513285954984e-02  2.3844014963684230e-02  1.9528334043524793e-02  1.5596167209292576e-02  1.2011722216729670e-02  8.7263164942989069e-03  5.6787652032768265e-03  2.7968464030852596e-03  0.0000000000000000e+00  0.0000000000000000e+00  1.2188441050687129e-02  2.4333780136328306e-02  3.6393097125335956e-02  4.8323833104741726e-02  6.0083965220698796e-02  7.1632174646369368e-02  8.2928005498302829e-02  9.3932012637543236e-02  1.0460589646550654e-01  1.1491262308109448e-01  1.2481652853686774e-01  1.3428340645918740e-01  1.4328057902734856e-01  1.5177695228814370e-01  1.5974305805379369e-01  1.6715108620589703e-01  1.7397491307207719e-01  1.8019013355063784e-01  1.8577410663547328e-01  1.9070602564105288e-01  1.9496702535701155e-01  1.9854033813319891e-01  2.0141150908685709e-01  2.0356867692749042e-01  2.0500292123021621e-01  2.0570866959395512e-01  2.0568414960955900e-01  2.0493186190412421e-01  2.0345904294331257e-01  2.0127808105299705e-01  1.9840684738324227e-01  1.9486890598532522e-01  1.9069357390631900e-01  1.8591581263973306e-01  1.8057594518786180e-01  1.7471920673408362e-01  1.6839514968083164e-01  1.6165693394012498e-01  1.5456053967992525e-01  1.4716394167772537e-01  1.3952628214032900e-01  1.3170707303434145e-01  1.2376545075129905e-01  1.1575949657428143e-01  1.0774562710832647e-01  9.977805051641