<?xml version="1.0"?>
<VTKFile type="UnstructuredGrid"  version="0.1"  >
<UnstructuredGrid>
<Piece  NumberOfPoints="61" NumberOfCells="160">
<Points>
<DataArray  type="Float64"  NumberOfComponents="3"  format="ascii">0 0 0  0.2 0 0  0.4 0 0  0.6 0 0  0.8 0 0  1 0 0  0 0.2 0  0.2 0.2 0  0.4 0.2 0  0.6 0.2 0  0.8 0.2 0  1 0.2 0  0 0.4 0  0.2 0.4 0  0.4 0.4 0  0.6 0.4 0  0.8 0.4 0  1 0.4 0  0 0.6 0  0.2 0.6 0  0.4 0.6 0  0.6 0.6 0  0.8 0.6 0  1 0.6 0  0 0.8 0  0.2 0.8 0  0.4 0.8 0  0.6 0.8 0  0.8 0.8 0  1 0.8 0  0 1 0  0.2 1 0  0.4 1 0  0.6 1 0  0.8 1 0  1 1 0  0.1 0.1 0  0.3 0.1 0  0.5 0.1 0  0.7 0.1 0  0.9 0.1 0  0.1 0.3 0  0.3 0.3 0  0.5 0.3 0  0.7 0.3 0  0.9 0.3 0  0.1 0.5 0  0.3 0.5 0  0.5 0.5 0  0.7 0.5 0  0.9 0.5 0  0.1 0.7 0  0.3 0.7 0  0.5 0.7 0  0.7 0.7 0  0.9 0.7 0  0.1 0.9 0  0.3 0.9 0  0.5 0.9 0  0.7 0.9 0  0.9 0.9 0  </DataArray>
</Points>
<Cells>
<DataArray  type="UInt32"  Name="connectivity"  format="ascii">0 1  0 6  0 36  1 2  1 7  1 36  1 37  2 3  2 8  2 37  2 38  3 4  3 9  3 38  3 39  4 5  4 10  4 39  4 40  5 11  5 40  6 7  6 12  6 36  6 41  7 8  7 13  7 36  7 37  7 41  7 42  8 9  8 14  8 37  8 38  8 42  8 43  9 10  9 15  9 38  9 39  9 43  9 44  10 11  10 16  10 39  10 40  10 44  10 45  11 17  11 40  11 45  12 13  12 18  12 41  12 46  13 14  13 19  13 41  13 42  13 46  13 47  14 15  14 20  14 42  14 43  14 47  14 48  15 16  15 21  15 43  15 44  15 48  15 49  16 17  16 22  16 44  16 45  16 49  16 50  17 23  17 45  17 50  18 19  18 24  18 46  18 51  19 20  19 25  19 46  19 47  19 51  19 52  20 21  20 26  20 47  20 48  20 52  20 53  21 22  21 27  21 48  21 49  21 53  21 54  22 23  22 28  22 49  22 50  22 54  22 55  23 29  23 50  23 55  24 25  24 30  24 51  24 56  25 26  25 31  25 51  25 52  25 56  25 57  26 27  26 32  26 52  26 53  26 57  26 58  27 28  27 33  27 53  27 54  27 58  27 59  28 29  28 34  28 54  28 55  28 59  28 60  29 35  29 55  29 60  30 31  30 56  31 32  31 56  31 57  32 33  32 57  32 58  33 34  33 58  33 59  34 35  34 59  34 60  35 60  </DataArray>
<DataArray  type="UInt32"  Name="offsets"  format="ascii">2 4 6 8 10 12 14 16 18 20 22 24 26 28 30 32 34 36 38 40 42 44 46 48 50 52 54 56 58 60 62 64 66 68 70 72 74 76 78 80 82 84 86 88 90 92 94 96 98 100 102 104 106 108 110 112 114 116 118 120 122 124 126 128 130 132 134 136 138 140 142 144 146 148 150 152 154 156 158 160 162 164 166 168 170 172 174 176 178 180 182 184 186 188 190 192 194 196 198 200 202 204 206 208 210 212 214 216 218 220 222 224 226 228 230 232 234 236 238 240 242 244 246 248 250 252 254 256 258 260 262 264 266 268 270 272 274 276 278 280 282 284 286 288 290 292 294 296 298 300 302 304 306 308 310 312 314 316 318 320 </DataArray>
<DataArray  type="UInt8"  Name="types"  format="ascii">3 3 3 3 3 3 3 3 3 3 3 3 3 3 3 3 3 3 3 3 3 3 3 3 3 3 3 3 3 3 3 3 3 3 3 3 3 3 3 3 3 3 3 3 3 3 3 3 3 3 3 3 3 3 3 3 3 3 3 3 3 3 3 3 3 3 3 3 3 3 3 3 3 3 3 3 3 3 3 3 3 3 3 3 3 3 3 3 3 3 3 3 3 3 3 3 3 3 3 3 3 3 3 3 3 3 3 3 3 3 3 3 3 3 3 3 3 3 3 3 3 3 3 3 3 3 3 3 3 3 3 3 3 3 3 3 3 3 3 3 3 3 3 3 3 3 3 3 3 3 3 3 3 3 3 3 3 3 3 3 </DataArray>
</Cells>
<CellData  Scalars="f">
<DataArray  type="Float64"  Name="f"  format="ascii">1 1 1 1 1 1 1 1 1 1 1 1 1 1 1 1 1 1 1 1 1 1 1 1 1 1 1 1 1 1 1 1 1 1 1 1 1 1 1 1 1 1 1 1 1 1 1 1 1 1 1 1 1 1 1 1 1 1 1 1 1 1 1 1 1 1 1 1 1 1 1 1 1 1 1 1 1 1 1 1 1 1 1 1 1 1 1 1 1 1 1 1 1 1 1 1 1 1 1 1 1 1 1 1 1 1 1 1 1 1 1 1 1 1 1 1 1 1 1 1 1 1 1 1 1 1 1 1 1 1 1 1 1 1 1 1 1 1 1 1 1 1 1 1 1 1 1 1 1 1 1 1 1 1 1 1 1 1 1 1 </DataArray>
</CellData>
</Piece>
</UnstructuredGrid>
</VTKFile>