<?xml version="1.0"?>
<VTKFile type="UnstructuredGrid"  version="0.1"  >
<UnstructuredGrid>
<Piece  NumberOfPoints="5101" NumberOfCells="10000">
<Points>
<DataArray  type="Float64"  NumberOfComponents="3"  format="ascii">0 0 0  0.2 0 0  0.4 0 0  0.6 0 0  0.8 0 0  1 0 0  1.2 0 0  1.4 0 0  1.6 0 0  1.8 0 0  2 0 0  2.2 0 0  2.4 0 0  2.6 0 0  2.8 0 0  3 0 0  3.2 0 0  3.4 0 0  3.6 0 0  3.8 0 0  4 0 0  4.2 0 0  4.4 0 0  4.6 0 0  4.8 0 0  5 0 0  5.2 0 0  5.4 0 0  5.6 0 0  5.8 0 0  6 0 0  6.2 0 0  6.4 0 0  6.6 0 0  6.8 0 0  7 0 0  7.2 0 0  7.4 0 0  7.6 0 0  7.8 0 0  8 0 0  8.199999999999999 0 0  8.4 0 0  8.6 0 0  8.800000000000001 0 0  9 0 0  9.199999999999999 0 0  9.4 0 0  9.6 0 0  9.800000000000001 0 0  10 0 0  0 0.2 0  0.2 0.2 0  0.4 0.2 0  0.6 0.2 0  0.8 0.2 0  1 0.2 0  1.2 0.2 0  1.4 0.2 0  1.6 0.2 0  1.8 0.2 0  2 0.2 0  2.2 0.2 0  2.4 0.2 0  2.6 0.2 0  2.8 0.2 0  3 0.2 0  3.2 0.2 0  3.4 0.2 0  3.6 0.2 0  3.8 0.2 0  4 0.2 0  4.2 0.2 0  4.4 0.2 0  4.6 0.2 0  4.8 0.2 0  5 0.2 0  5.2 0.2 0  5.4 0.2 0  5.6 0.2 0  5.8 0.2 0  6 0.2 0  6.2 0.2 0  6.4 0.2 0  6.6 0.2 0  6.8 0.2 0  7 0.2 0  7.2 0.2 0  7.4 0.2 0  7.6 0.2 0  7.8 0.2 0  8 0.2 0  8.199999999999999 0.2 0  8.4 0.2 0  8.6 0.2 0  8.800000000000001 0.2 0  9 0.2 0  9.199999999999999 0.2 0  9.4 0.2 0  9.6 0.2 0  9.800000000000001 0.2 0  10 0.2 0  0 0.4 0  0.2 0.4 0  0.4 0.4 0  0.6 0.4 0  0.8 0.4 0  1 0.4 0  1.2 0.4 0  1.4 0.4 0  1.6 0.4 0  1.8 0.4 0  2 0.4 0  2.2 0.4 0  2.4 0.4 0  2.6 0.4 0  2.8 0.4 0  3 0.4 0  3.2 0.4 0  3.4 0.4 0  3.6 0.4 0  3.8 0.4 0  4 0.4 0  4.2 0.4 0  4.4 0.4 0  4.6 0.4 0  4.8 0.4 0  5 0.4 0  5.2 0.4 0  5.4 0.4 0  5.6 0.4 0  5.8 0.4 0  6 0.4 0  6.2 0.4 0  6.4 0.4 0  6.6 0.4 0  6.8 0.4 0  7 0.4 0  7.2 0.4 0  7.4 0.4 0  7.6 0.4 0  7.8 0.4 0  8 0.4 0  8.199999999999999 0.4 0  8.4 0.4 0  8.6 0.4 0  8.800000000000001 0.4 0  9 0.4 0  9.199999999999999 0.4 0  9.4 0.4 0  9.6 0.4 0  9.800000000000001 0.4 0  10 0.4 0  0 0.6 0  0.2 0.6 0  0.4 0.6 0  0.6 0.6 0  0.8 0.6 0  1 0.6 0  1.2 0.6 0  1.4 0.6 0  1.6 0.6 0  1.8 0.6 0  2 0.6 0  2.2 0.6 0  2.4 0.6 0  2.6 0.6 0  2.8 0.6 0  3 0.6 0  3.2 0.6 0  3.4 0.6 0  3.6 0.6 0  3.8 0.6 0  4 0.6 0  4.2 0.6 0  4.4 0.6 0  4.6 0.6 0  4.8 0.6 0  5 0.6 0  5.2 0.6 0  5.4 0.6 0  5.6 0.6 0  5.8 0.6 0  6 0.6 0  6.2 0.6 0  6.4 0.6 0  6.6 0.6 0  6.8 0.6 0  7 0.6 0  7.2 0.6 0  7.4 0.6 0  7.6 0.6 0  7.8 0.6 0  8 0.6 0  8.199999999999999 0.6 0  8.4 0.6 0  8.6 0.6 0  8.800000000000001 0.6 0  9 0.6 0  9.199999999999999 0.6 0  9.4 0.6 0  9.6 0.6 0  9.800000000000001 0.6 0  10 0.6 0  0 0.8 0  0.2 0.8 0  0.4 0.8 0  0.6 0.8 0  0.8 0.8 0  1 0.8 0  1.2 0.8 0  1.4 0.8 0  1.6 0.8 0  1.8 0.8 0  2 0.8 0  2.2 0.8 0  2.4 0.8 0  2.6 0.8 0  2.8 0.8 0  3 0.8 0  3.2 0.8 0  3.4 0.8 0  3.6 0.8 0  3.8 0.8 0  4 0.8 0  4.2 0.8 0  4.4 0.8 0  4.6 0.8 0  4.8 0.8 0  5 0.8 0  5.2 0.8 0  5.4 0.8 0  5.6 0.8 0  5.8 0.8 0  6 0.8 0  6.2 0.8 0  6.4 0.8 0  6.6 0.8 0  6.8 0.8 0  7 0.8 0  7.2 0.8 0  7.4 0.8 0  7.6 0.8 0  7.8 0.8 0  8 0.8 0  8.199999999999999 0.8 0  8.4 0.8 0  8.6 0.8 0  8.800000000000001 0.8 0  9 0.8 0  9.199999999999999 0.8 0  9.4 0.8 0  9.6 0.8 0  9.800000000000001 0.8 0  10 0.8 0  0 1 0  0.2 1 0  0.4 1 0  0.6 1 0  0.8 1 0  1 1 0  1.2 1 0  1.4 1 0  1.6 1 0  1.8 1 0  2 1 0  2.2 1 0  2.4 1 0  2.6 1 0  2.8 1 0  3 1 0  3.2 1 0  3.4 1 0  3.6 1 0  3.8 1 0  4 1 0  4.2 1 0  4.4 1 0  4.6 1 0  4.8 1 0  5 1 0  5.2 1 0  5.4 1 0  5.6 1 0  5.8 1 0  6 1 0  6.2 1 0  6.4 1 0  6.6 1 0  6.8 1 0  7 1 0  7.2 1 0  7.4 1 0  7.6 1 0  7.8 1 0  8 1 0  8.199999999999999 1 0  8.4 1 0  8.6 1 0  8.800000000000001 1 0  9 1 0  9.199999999999999 1 0  9.4 1 0  9.6 1 0  9.800000000000001 1 0  10 1 0  0 1.2 0  0.2 1.2 0  0.4 1.2 0  0.6 1.2 0  0.8 1.2 0  1 1.2 0  1.2 1.2 0  1.4 1.2 0  1.6 1.2 0  1.8 1.2 0  2 1.2 0  2.2 1.2 0  2.4 1.2 0  2.6 1.2 0  2.8 1.2 0  3 1.2 0  3.2 1.2 0  3.4 1.2 0  3.6 1.2 0  3.8 1.2 0  4 1.2 0  4.2 1.2 0  4.4 1.2 0  4.6 1.2 0  4.8 1.2 0  5 1.2 0  5.2 1.2 0  5.4 1.2 0  5.6 1.2 0  5.8 1.2 0  6 1.2 0  6.2 1.2 0  6.4 1.2 0  6.6 1.2 0  6.8 1.2 0  7 1.2 0  7.2 1.2 0  7.4 1.2 0  7.6 1.2 0  7.8 1.2 0  8 1.2 0  8.199999999999999 1.2 0  8.4 1.2 0  8.6 1.2 0  8.800000000000001 1.2 0  9 1.2 0  9.199999999999999 1.2 0  9.4 1.2 0  9.6 1.2 0  9.800000000000001 1.2 0  10 1.2 0  0 1.4 0  0.2 1.4 0  0.4 1.4 0  0.6 1.4 0  0.8 1.4 0  1 1.4 0  1.2 1.4 0  1.4 1.4 0  1.6 1.4 0  1.8 1.4 0  2 1.4 0  2.2 1.4 0  2.4 1.4 0  2.6 1.4 0  2.8 1.4 0  3 1.4 0  3.2 1.4 0  3.4 1.4 0  3.6 1.4 0  3.8 1.4 0  4 1.4 0  4.2 1.4 0  4.4 1.4 0  4.6 1.4 0  4.8 1.4 0  5 1.4 0  5.2 1.4 0  5.4 1.4 0  5.6 1.4 0  5.8 1.4 0  6 1.4 0  6.2 1.4 0  6.4 1.4 0  6.6 1.4 0  6.8 1.4 0  7 1.4 0  7.2 1.4 0  7.4 1.4 0  7.6 1.4 0  7.8 1.4 0  8 1.4 0  8.199999999999999 1.4 0  8.4 1.4 0  8.6 1.4 0  8.800000000000001 1.4 0  9 1.4 0  9.199999999999999 1.4 0  9.4 1.4 0  9.6 1.4 0  9.800000000000001 1.4 0  10 1.4 0  0 1.6 0  0.2 1.6 0  0.4 1.6 0  0.6 1.6 0  0.8 1.6 0  1 1.6 0  1.2 1.6 0  1.4 1.6 0  1.6 1.6 0  1.8 1.6 0  2 1.6 0  2.2 1.6 0  2.4 1.6 0  2.6 1.6 0  2.8 1.6 0  3 1.6 0  3.2 1.6 0  3.4 1.6 0  3.6 1.6 0  3.8 1.6 0  4 1.6 0  4.2 1.6 0  4.4 1.6 0  4.6 1.6 0  4.8 1.6 0  5 1.6 0  5.2 1.6 0  5.4 1.6 0  5.6 1.6 0  5.8 1.6 0  6 1.6 0  6.2 1.6 0  6.4 1.6 0  6.6 1.6 0  6.8 1.6 0  7 1.6 0  7.2 1.6 0  7.4 1.6 0  7.6 1.6 0  7.8 1.6 0  8 1.6 0  8.199999999999999 1.6 0  8.4 1.6 0  8.6 1.6 0  8.800000000000001 1.6 0  9 1.6 0  9.199999999999999 1.6 0  9.4 1.6 0  9.6 1.6 0  9.800000000000001 1.6 0  10 1.6 0  0 1.8 0  0.2 1.8 0  0.4 1.8 0  0.6 1.8 0  0.8 1.8 0  1 1.8 0  1.2 1.8 0  1.4 1.8 0  1.6 1.8 0  1.8 1.8 0  2 1.8 0  2.2 1.8 0  2.4 1.8 0  2.6 1.8 0  2.8 1.8 0  3 1.8 0  3.2 1.8 0  3.4 1.8 0  3.6 1.8 0  3.8 1.8 0  4 1.8 0  4.2 1.8 0  4.4 1.8 0  4.6 1.8 0  4.8 1.8 0  5 1.8 0  5.2 1.8 0  5.4 1.8 0  5.6 1.8 0  5.8 1.8 0  6 1.8 0  6.2 1.8 0  6.4 1.8 0  6.6 1.8 0  6.8 1.8 0  7 1.8 0  7.2 1.8 0  7.4 1.8 0  7.6 1.8 0  7.8 1.8 0  8 1.8 0  8.199999999999999 1.8 0  8.4 1.8 0  8.6 1.8 0  8.800000000000001 1.8 0  9 1.8 0  9.199999999999999 1.8 0  9.4 1.8 0  9.6 1.8 0  9.800000000000001 1.8 0  10 1.8 0  0 2 0  0.2 2 0  0.4 2 0  0.6 2 0  0.8 2 0  1 2 0  1.2 2 0  1.4 2 0  1.6 2 0  1.8 2 0  2 2 0  2.2 2 0  2.4 2 0  2.6 2 0  2.8 2 0  3 2 0  3.2 2 0  3.4 2 0  3.6 2 0  3.8 2 0  4 2 0  4.2 2 0  4.4 2 0  4.6 2 0  4.8 2 0  5 2 0  5.2 2 0  5.4 2 0  5.6 2 0  5.8 2 0  6 2 0  6.2 2 0  6.4 2 0  6.6 2 0  6.8 2 0  7 2 0  7.2 2 0  7.4 2 0  7.6 2 0  7.8 2 0  8 2 0  8.199999999999999 2 0  8.4 2 0  8.6 2 0  8.800000000000001 2 0  9 2 0  9.199999999999999 2 0  9.4 2 0  9.6 2 0  9.800000000000001 2 0  10 2 0  0 2.2 0  0.2 2.2 0  0.4 2.2 0  0.6 2.2 0  0.8 2.2 0  1 2.2 0  1.2 2.2 0  1.4 2.2 0  1.6 2.2 0  1.8 2.2 0  2 2.2 0  2.2 2.2 0  2.4 2.2 0  2.6 2.2 0  2.8 2.2 0  3 2.2 0  3.2 2.2 0  3.4 2.2 0  3.6 2.2 0  3.8 2.2 0  4 2.2 0  4.2 2.2 0  4.4 2.2 0  4.6 2.2 0  4.8 2.2 0  5 2.2 0  5.2 2.2 0  5.4 2.2 0  5.6 2.2 0  5.8 2.2 0  6 2.2 0  6.2 2.2 0  6.4 2.2 0  6.6 2.2 0  6.8 2.2 0  7 2.2 0  7.2 2.2 0  7.4 2.2 0  7.6 2.2 0  7.8 2.2 0  8 2.2 0  8.199999999999999 2.2 0  8.4 2.2 0  8.6 2.2 0  8.800000000000001 2.2 0  9 2.2 0  9.199999999999999 2.2 0  9.4 2.2 0  9.6 2.2 0  9.800000000000001 2.2 0  10 2.2 0  0 2.4 0  0.2 2.4 0  0.4 2.4 0  0.6 2.4 0  0.8 2.4 0  1 2.4 0  1.2 2.4 0  1.4 2.4 0  1.6 2.4 0  1.8 2.4 0  2 2.4 0  2.2 2.4 0  2.4 2.4 0  2.6 2.4 0  2.8 2.4 0  3 2.4 0  3.2 2.4 0  3.4 2.4 0  3.6 2.4 0  3.8 2.4 0  4 2.4 0  4.2 2.4 0  4.4 2.4 0  4.6 2.4 0  4.8 2.4 0  5 2.4 0  5.2 2.4 0  5.4 2.4 0  5.6 2.4 0  5.8 2.4 0  6 2.4 0  6.2 2.4 0  6.4 2.4 0  6.6 2.4 0  6.8 2.4 0  7 2.4 0  7.2 2.4 0  7.4 2.4 0  7.6 2.4 0  7.8 2.4 0  8 2.4 0  8.199999999999999 2.4 0  8.4 2.4 0  8.6 2.4 0  8.800000000000001 2.4 0  9 2.4 0  9.199999999999999 2.4 0  9.4 2.4 0  9.6 2.4 0  9.800000000000001 2.4 0  10 2.4 0  0 2.6 0  0.2 2.6 0  0.4 2.6 0  0.6 2.6 0  0.8 2.6 0  1 2.6 0  1.2 2.6 0  1.4 2.6 0  1.6 2.6 0  1.8 2.6 0  2 2.6 0  2.2 2.6 0  2.4 2.6 0  2.6 2.6 0  2.8 2.6 0  3 2.6 0  3.2 2.6 0  3.4 2.6 0  3.6 2.6 0  3.8 2.6 0  4 2.6 0  4.2 2.6 0  4.4 2.6 0  4.6 2.6 0  4.8 2.6 0  5 2.6 0  5.2 2.6 0  5.4 2.6 0  5.6 2.6 0  5.8 2.6 0  6 2.6 0  6.2 2.6 0  6.4 2.6 0  6.6 2.6 0  6.8 2.6 0  7 2.6 0  7.2 2.6 0  7.4 2.6 0  7.6 2.6 0  7.8 2.6 0  8 2.6 0  8.199999999999999 2.6 0  8.4 2.6 0  8.6 2.6 0  8.800000000000001 2.6 0  9 2.6 0  9.199999999999999 2.6 0  9.4 2.6 0  9.6 2.6 0  9.800000000000001 2.6 0  10 2.6 0  0 2.8 0  0.2 2.8 0  0.4 2.8 0  0.6 2.8 0  0.8 2.8 0  1 2.8 0  1.2 2.8 0  1.4 2.8 0  1.6 2.8 0  1.8 2.8 0  2 2.8 0  2.2 2.8 0  2.4 2.8 0  2.6 2.8 0  2.8 2.8 0  3 2.8 0  3.2 2.8 0  3.4 2.8 0  3.6 2.8 0  3.8 2.8 0  4 2.8 0  4.2 2.8 0  4.4 2.8 0  4.6 2.8 0  4.8 2.8 0  5 2.8 0  5.2 2.8 0  5.4 2.8 0  5.6 2.8 0  5.8 2.8 0  6 2.8 0  6.2 2.8 0  6.4 2.8 0  6.6 2.8 0  6.8 2.8 0  7 2.8 0  7.2 2.8 0  7.4 2.8 0  7.6 2.8 0  7.8 2.8 0  8 2.8 0  8.199999999999999 2.8 0  8.4 2.8 0  8.6 2.8 0  8.800000000000001 2.8 0  9 2.8 0  9.199999999999999 2.8 0  9.4 2.8 0  9.6 2.8 0  9.800000000000001 2.8 0  10 2.8 0  0 3 0  0.2 3 0  0.4 3 0  0.6 3 0  0.8 3 0  1 3 0  1.2 3 0  1.4 3 0  1.6 3 0  1.8 3 0  2 3 0  2.2 3 0  2.4 3 0  2.6 3 0  2.8 3 0  3 3 0  3.2 3 0  3.4 3 0  3.6 3 0  3.8 3 0  4 3 0  4.2 3 0  4.4 3 0  4.6 3 0  4.8 3 0  5 3 0  5.2 3 0  5.4 3 0  5.6 3 0  5.8 3 0  6 3 0  6.2 3 0  6.4 3 0  6.6 3 0  6.8 3 0  7 3 0  7.2 3 0  7.4 3 0  7.6 3 0  7.8 3 0  8 3 0  8.199999999999999 3 0  8.4 3 0  8.6 3 0  8.800000000000001 3 0  9 3 0  9.199999999999999 3 0  9.4 3 0  9.6 3 0  9.800000000000001 3 0  10 3 0  0 3.2 0  0.2 3.2 0  0.4 3.2 0  0.6 3.2 0  0.8 3.2 0  1 3.2 0  1.2 3.2 0  1.4 3.2 0  1.6 3.2 0  1.8 3.2 0  2 3.2 0  2.2 3.2 0  2.4 3.2 0  2.6 3.2 0  2.8 3.2 0  3 3.2 0  3.2 3.2 0  3.4 3.2 0  3.6 3.2 0  3.8 3.2 0  4 3.2 0  4.2 3.2 0  4.4 3.2 0  4.6 3.2 0  4.8 3.2 0  5 3.2 0  5.2 3.2 0  5.4 3.2 0  5.6 3.2 0  5.8 3.2 0  6 3.2 0  6.2 3.2 0  6.4 3.2 0  6.6 3.2 0  6.8 3.2 0  7 3.2 0  7.2 3.2 0  7.4 3.2 0  7.6 3.2 0  7.8 3.2 0  8 3.2 0  8.199999999999999 3.2 0  8.4 3.2 0  8.6 3.2 0  8.800000000000001 3.2 0  9 3.2 0  9.199999999999999 3.2 0  9.4 3.2 0  9.6 3.2 0  9.800000000000001 3.2 0  10 3.2 0  0 3.4 0  0.2 3.4 0  0.4 3.4 0  0.6 3.4 0  0.8 3.4 0  1 
[...]
<PointData  Scalars="f_6"> 
<DataArray  type="Float64"  Name="f_6"  format="ascii">4.8669253736410923e-03  3.8988224666169503e-02  5.8016097956014194e-02  7.0800434456123926e-02  8.0016320187298096e-02  8.6842520735991829e-02  9.1997160195797248e-02  9.5937445810139882e-02  9.8977491562321052e-02  1.0133924050815828e-01  1.0318401986544838e-01  1.0463116281507293e-01  1.0577021124370155e-01  1.0666907315521247e-01  1.0737968265336133e-01  1.0794201342301515e-01  1.0838697952039583e-01  1.0873856257121112e-01  1.0901538919623643e-01  1.0923191012159021e-01  1.0939928562454303e-01  1.0952605078542506e-01  1.0961861267312009e-01  1.0968161659439769e-01  1.0971820769978881e-01  1.0973020614164904e-01  1.0971820769829263e-01  1.0968161659412372e-01  1.0961861267316722e-01  1.0952605078574663e-01  1.0939928562502527e-01  1.0923191012216593e-01  1.0901538919689505e-01  1.0873856257190095e-01  1.0838697952109361e-01  1.0794201342373139e-01  1.0737968265408343e-01  1.0666907315593160e-01  1.0577021124442181e-01  1.0463116281575817e-01  1.0318401986614700e-01  1.0133924050886997e-01  9.8977491563049025e-02  9.5937445810887659e-02  9.1997160196568548e-02  8.6842520736778422e-02  8.0016320188045359e-02  7.0800434456836092e-02  5.8016097956660205e-02  3.8988224666539291e-02  4.8669253737686725e-03  2.3689066795073393e-03  2.4632542148363318e-02  4.0315735603486100e-02  5.2253616067129312e-02  6.0937552726010501e-02  6.7503297031644607e-02  7.2490517144263453e-02  7.6326425693319849e-02  7.9296360975776206e-02  8.1610296664614099e-02  8.3421565863362412e-02  8.4844844780021175e-02  8.5966650057556590e-02  8.6852910827255173e-02  8.7554225668207863e-02  8.8109649589266550e-02  8.8549454013597359e-02  8.8897164899479728e-02  8.9171082332746301e-02  8.9385421276518148e-02  8.9551171146513994e-02  8.9676743397937145e-02  8.9768456569232200e-02  8.9830894204605785e-02  8.9867160851297270e-02  8.9879053628207126e-02  8.9867160849942340e-02  8.9830894204357387e-02  8.9768456569264771e-02  8.9676743398257958e-02  8.9551171146996525e-02  8.9385421277100363e-02  8.9171082333402860e-02  8.8897164900172229e-02  8.8549454014307569e-02  8.8109649589996494e-02  8.7554225668943386e-02  8.6852910827982521e-02  8.5966650058284327e-02  8.4844844780714496e-02  8.3421565864077618e-02  8.1610296665328763e-02  7.9296360976505997e-02  7.6326425694061409e-02  7.2490517145029146e-02  6.7503297032422638e-02  6.0937552726768887e-02  5.2253616067833644e-02  4.0315735604238408e-02  2.4632542148595976e-02  2.3689066795036574e-03  1.2809790948840609e-03  1.6653532286901074e-02  2.8878147632730680e-02  3.8754089693072521e-02  4.6425710406163397e-02  5.2361361792302455e-02  5.6969779009219498e-02  6.0556908664228207e-02  6.3361396701653042e-02  6.5561452225592065e-02  6.7292960956054901e-02  6.8659378968764298e-02  6.9740102294125680e-02  7.0596342774349008e-02  7.1275515248472365e-02  7.1814483100323234e-02  7.2241985162528929e-02  7.2580461658623488e-02  7.2847435523545473e-02  7.3056561319825047e-02  7.3218422845942599e-02  7.3341138423151070e-02  7.3430816888117631e-02  7.3491895613352273e-02  7.3527383114293493e-02  7.3539022056370335e-02  7.3527383112954883e-02  7.3491895613100322e-02  7.3430816888150896e-02  7.3341138423458352e-02  7.3218422846415054e-02  7.3056561320406221e-02  7.2847435524195758e-02  7.2580461659323275e-02  7.2241985163259234e-02  7.1814483101058410e-02  7.1275515249216756e-02  7.0596342775099533e-02  6.9740102294865117e-02  6.8659378969480420e-02  6.7292960956786357e-02  6.5561452226318068e-02  6.3361396702386885e-02  6.0556908664979668e-02  5.6969779009990007e-02  5.2361361793095910e-02  4.6425710406955707e-02  3.8754089693917360e-02  2.8878147633001734e-02  1.6653532286766373e-02  1.2809790951822230e-03  9.5029140986776627e-04  1.1862525075174308e-02  2.1102299308403218e-02  2.9038109154343017e-02  3.5468148534974923e-02  4.0627594178967857e-02  4.4725124640648393e-02  4.7973331003093991e-02  5.0545942583624270e-02  5.2584920553230392e-02  5.4202537267344447e-02  5.5487352769694138e-02  5.6508916744789812e-02  5.7321844523368304e-02  5.7969041778526964e-02  5.8484241963920533e-02  5.8893982035218118e-02  5.9219135744028061e-02  5.9476101567750614e-02  5.9677721732171105e-02  5.9833991426971302e-02  5.9952603362390354e-02  6.0039361849192514e-02  6.0098492002273754e-02  6.0132862909785596e-02  6.0144138189525936e-02  6.0132862908416893e-02  6.0098492002011228e-02  6.0039361849209889e-02  5.9952603362683758e-02  5.9833991427434514e-02  5.9677721732754610e-02  5.9476101568411426e-02  5.9219135744726981e-02  5.8893982035948769e-02  5.8484241964674014e-02  5.7969041779296966e-02  5.7321844524140277e-02  5.6508916745549018e-02  5.5487352770444115e-02  5.4202537268090351e-02  5.2584920553978710e-02  5.0545942584394106e-02  4.7973331003872362e-02  4.4725124641453229e-02  4.0627594179808081e-02  3.5468148535933317e-02  2.9038109154670238e-02  2.1102299308200775e-02  1.1862525075181009e-02  9.5029141013226834e-04  6.7953557348039153e-04  8.7208565365097888e-03  1.5728844026947585e-02  2.1972122123327661e-02  2.7232903741575866e-02  3.1580685248308406e-02  3.5122350928635145e-02  3.7983907727892667e-02  4.0285591317629127e-02  4.2132227149135663e-02  4.3611872854824409e-02  4.4796705732814426e-02  4.5745168909535484e-02  4.6504227595922459e-02  4.7111457002726280e-02  4.7596833675870226e-02  4.7984219801656965e-02  4.8292568174935921e-02  4.8536887972138953e-02  4.8729011751897665e-02  4.8878199647829919e-02  4.8991610887988389e-02  4.9074666975356687e-02  4.9131325625273795e-02  4.9164280004639523e-02  4.9175093893919122e-02  4.9164280003229949e-02  4.9131325624971980e-02  4.9074666975346404e-02  4.8991610888271031e-02  4.8878199648287685e-02  4.8729011752477999e-02  4.8536887972803013e-02  4.8292568175639358e-02  4.7984219802395582e-02  4.7596833676628557e-02  4.7111457003527875e-02  4.6504227596724484e-02  4.5745168910323861e-02  4.4796705733597578e-02  4.3611872855614728e-02  4.2132227149915713e-02  4.0285591318428002e-02  3.7983907728742043e-02  3.5122350929501854e-02  3.1580685249346374e-02  2.7232903741917745e-02  2.1972122123096235e-02  1.5728844026955204e-02  8.7208565365052854e-03  6.7953557374470994e-04  5.1063775911268090e-04  6.5361592570489036e-03  1.1886229429014171e-02  1.6778624935127797e-02  2.1015919908359687e-02  2.4612364335332811e-02  2.7608547130844478e-02  3.0076513829002293e-02  3.2093377150114122e-02  3.3733091828280722e-02  3.5061519296760067e-02  3.6135174500247808e-02  3.7001407585534982e-02  3.7699305472189491e-02  3.8260815125547347e-02  3.8711866891900149e-02  3.9073395804904883e-02  3.9362224940424725e-02  3.9591806742061537e-02  3.9772832532612455e-02  3.9913725668913463e-02  4.0021034548835287e-02  4.0099740334136727e-02  4.0153492046706069e-02  4.0184779229220056e-02  4.0195049902661581e-02  4.0184779227750884e-02  4.0153492046352247e-02  4.0099740334089848e-02  4.0021034549101400e-02  3.9913725669360620e-02  3.9772832533181091e-02  3.9591806742722009e-02  3.9362224941125352e-02  3.9073395805656067e-02  3.8711866892688990e-02  3.8260815126371611e-02  3.7699305473019230e-02  3.7001407586361779e-02  3.6135174501077179e-02  3.5061519297600117e-02  3.3733091829132082e-02  3.2093377150980769e-02  3.0076513829943839e-02  2.7608547131960207e-02  2.4612364335659932e-02  2.1015919908067813e-02  1.6778624935117139e-02  1.1886229429035222e-02  6.5361592570674226e-03  5.1063775936304866e-04  3.8571217596730477e-04  4.9666880595860483e-03  9.0802746220538678e-03  1.2909494173930018e-02  1.6298409164899195e-02  1.9236295601166083e-02  2.1733504684827092e-02  2.3827295718381811e-02  2.5565180829047445e-02  2.6997118253566217e-02  2.8170641237123383e-02  2.9128531038550422e-02  2.9907984417666986e-02  3.0540617427440599e-02  3.1052886721455522e-02  3.1466683544487672e-02  3.1799965069647496e-02  3.2067353597456799e-02  3.2280671863124027e-02  3.2449403471541509e-02  3.2581078275342581e-02  3.2681587594569468e-02  3.2755436067761774e-02  3.2805937086532455e-02  3.2835358029244727e-02  3.2845020326054714e-02  3.2835358027704091e-02  3.2805937086115428e-02  3.2755436067673283e-02  3.2681587594808194e-02  3.2581078275770038e-02  3.2449403472101027e-02  3.2280671863780933e-02  3.2067353598168910e-02  3.1799965070418088e-02  3.1466683545308120e-02  3.1052886722297810e-02  3.0540617428295440e-02  2.9907984418539833e-02  2.9128531039443982e-02  2.8170641238045326e-02  2.6997118254525377e-02  2.5565180830028237e-02  2.3827295719615421e-02  2.1733504685135428e-02  1.9236295600792916e-02  1.6298409164858838e-02  1.2909494173947482e-02  9.0802746221137608e-03  4.9666880595970664e-03  3.8571217620486306e-04  2.9543152103809290e-04  3.8113239176005434e-03  6.9940270610480233e-03  9.9956518142496811e-03  1.2695664573959702e-02  1.5077461666386432e-02  1.7136842892231448e-02  1.8891412916396698e-02  2.0369047251809540e-02  2.1602446559690295e-02  2.2624918562736161e-02  2.3467979390241502e-02  2.4160105964762792e-02  2.4726256651918087e-02  2.5187844329778643e-02  2.5562955131862443e-02  2.5866681480652180e-02  2.6111491009064670e-02  2.6307587177094877e-02  2.6463238622877645e-02  2.6585066933925771e-02  2.6678289701130935e-02  2.6746919507739261e-02  2.6793921240959442e-02  2.6821330634788053e-02  2.6830336762511127e-02  2.6821330633176842e-02  2.6793921240468289e-02  2.6746919507590904e-02  2.6678289701320100e-02  2.6585066934327831e-02  2.6463238623426290e-02  2.6307587177746256e-02  2.6111491009799606e-02  2.5866681481446923e-02  2.5562955132714064e-02  2.5187844330644839e-02  2.4726256652829976e-02  2.4160105965705218e-02  2.3467979391220885e-02  2.2624918563757958e-02  2.1602446560783299e-02  2.0369047253159828e-02  1.8891412916691150e-02  1.7136842891735615e-02  1.5077461666312145e-02  1.2695664573982015e-02  9.9956518143202288e-03  6.9940270611269827e-03  3.8113239176041360e-03  2.9543152126980355e-04  2.2783186451866654e-04  2.9468642277027278e-03  5.4223404950104522e-03  7.7799041183811025e-03  9.9278310784631056e-03  1.1849509390774827e-02  1.3535369981607129e-02  1.4992115429433009e-02  1.6235332085744396e-02  1.7285812950326867e-02  1.8166353928055799e-02  1.8899664563946990e-02  1.9507087962943429e-02  2.0007926788276637e-02  2.0419172726466990e-02  2.0755487517177477e-02  2.1029327537564303e-02  2.1251140082064749e-02  2.1429585808832086e-02  2.1571759945913902e-02  2.1683396759542440e-02  2.1769049300196557e-02  2.1832240970127603e-02  2.1875588017193841e-02  2.1900893356968983e-02  2.1909212620689750e-02  2.1900893355284171e-02  2.1875588016616897e-02  2.1832240969905822e-02  2.1769049300315948e-02  2.1683396759903238e-02  2.1571759946452565e-02  2.1429585809493751e-02  2.1251140082819545e-02  2.1029327538402635e-02  2.0755487518067928e-02  2.0419172727398509e-02  2.0007926789260454e-02  1.9507087963976356e-02  1.8899664565042499e-02  1.8166353929206503e-02  1.7285812951818018e-02  1.6235332086036461e-02  1.4992115428802529e-02  1.3535369981473729e-02  1.1849509390768795e-02  9.9278310785566540e-03  7.7799041184864600e-03  5.4223404951155105e-03  2.9468642276929777e-03  2.2783186475135072e-04  1.7683510600432305e-04  2.2918529211696792e-03  4.2257647906395928e-03  6.0815689304646280e-03  7.7895446142775115e-03  9.3354192658156102e-03  1.0708368394442218e-02  1.1909463081807259e-02  1.2946828625189338e-02  1.3833325116583257e-02  1.4584243724328877e-02  1.5215655451717302e-02  1.5743279885025448e-02  1.6181791788007195e-02  1.6544449310276280e-02  1.6842943938665172e-02  1.7087392716472492e-02  1.7286414550941483e-02  1.7447250239122039e-02  1.7575899472746567e-02  1.7677257889017719e-02  1.7755243967772484e-02  1.7812910011376575e-02  1.7852534238827603e-02  1.7875692687193280e-02  1.7883310509956708e-02  1.7875692685437167e-02  1.7852534238166823e-02  1.7812910011079694e-02  1.7755243967836069e-02  1.7677257889354262e-02  1.7575899473275213e-02  1.7447250239800031e-02  1.7286414551728139e-02  1.7087392717344180e-02  1.6842943939608852e-02  1.6544449311281309e-02  1.6181791789094752e-02  1.5743279886178688e-02  1.5215655452949823e-02  1.4584243725941082e-02  1.3833325116833689e-02  1.2946828624400115e-02  1.1909463081604092e-02  1.0708368394403941e-02  9.3354192659221048e-03  7.7895446143982916e-03  6.0815689306085155e-03  4.2257647907621605e-03  2.2918529211616140e-03  1.7683510623720089e-04  1.3790514704541159e-04  1.7907531912188821e-03  3.3071166283374898e-03  4.7710072938454513e-03  6.1293602643264725e-03  7.3706384045722035e-03  8.4846395231871520e-03  9.4697368249594058e-03  1.0329679001763974e-02  1.1072173434647725e-02  1.1707291832030080e-02  1.2246236270667218e-02  1.2700418713623362e-02  1.3080837136894572e-02  1.3397689782371507e-02  1.3660167942885238e-02  1.3876373679166634e-02  1.4053319356086499e-02  1.4196976525883974e-02  1.4312350911335318e-02  1.4403567533645831e-02  1.4473955460424202e-02  1.4526125505702960e-02  1.4562036845623226e-02  1.4583050234635587e-02  1.4589966574307698e-02  1.4583050232836571e-02  1.4562036844881844e-02  1.4526125505328670e-02  1.4473955460438104e-02  1.4403567533958474e-02  1.4312350911863008e-02  1.4196976526574983e-02  1.4053319356894542e-02  1.3876373680082377e-02  1.3660167943889251e-02  1.3397689783478127e-02  1.3080837138104736e-02  1.2700418714925303e-02  1.2246236272382725e-02  1.1707291832267343e-02  1.1072173433675045e-02  1.0329679001427198e-02  9.4697368248514192e-03  8.4846395232797533e-03  7.3706384047384065e-03  6.1293602645037205e-03  4.7710072940100228e-03  3.3071166284762499e-03  1.7907531912208889e-03  1.3790514728247472e-04  1.0796089247054506e-04  1.4044186553211708e-03  2.5969630419804316e-03  3.7538585541501647e-03  4.8345840256200550e-03  5.8301151181125738e-03  6.7315655463383887e-03  7.5362103473024548e-03  8.2453228532973679e-03  8.8633363379742695e-03  9.3967648231514638e-03  9.8533136823539882e-03  1.0241167960334491e-02  1.0568471937986676e-02  1.0842975785856754e-02  1.1071817337280535e-02  1.1261405502726951e-02  1.1417375576306014e-02  1.1544592137292038e-02  1.1647180873553591e-02  1.1728575619454937e-02  1.1791570924835199e-02  1.1838373550113862e-02  1.1870648531263147e-02  1.1889557044967180e-02  1.1895784378547230e-02  1.1889557043132059e-02  1.1870648530447061e-02  1.1838373549658608e-02  1.1791570924790863e-02  1.1728575619722053e-02  1.1647180874079737e-02  1.1544592137989368e-02  1.1417375577148227e-02  1.1261405503687887e-02  1.1071817338375409e-02  1.0842975787085121e-02  1.0568471939319694e-02  1.0241167962113204e-02  9.8533136825854142e-03  9.3967648220034984e-03  8.8633363375028845e-03  8.2453228530791865e-03  7.5362103473097866e-03  6.7315655465068546e-03  5.8301151183366758e-03  4.8345840258435984e-03  3.7538585543449425e-03  2.5969630421324857e-03  1.4044186553459029e-03  1.0796089270017888e-04  8.4773598069611680e-05  1.1046518727724360e-03  2.0447808796193955e-03  2.9604717490354054e-03  3.8206679597492530e-03  4.6184370623326438e-03  5.3463580466817200e-03  6.0014403999915939e-03  6.5836273368292189e-03  7.0953151763309703e-03  7.5406326877612137e-03  7.9248150851896539e-03  8.2536719840115326e-03  8.5331735971914766e-03  8.7691493655591476e-03  8.9670842725443449e-03  9.1319935592097234e-03  9.2683565461360480e-03  9.3800924317493581e-03  9.4705639464696834e-03  9.5425978369652210e-03  9.5985139249323559e-03  9.6401567721078399e-03  9.6689257739878635e-03  9.6858008525879131e-03  9.6913618998515378e-03  9.6858008507303486e-03  9.6689257731052865e-03  9.6401567715895635e-03  9.5985139248316222e-03  9.5425978372021235e-03  9.4705639469668517e-03  9.3800924324613563e-03  9.2683565470178773e-03  9.1319935602567712e-03  8.9670842737351580e-03  8.7691493668827399e-03  8.5331735989682342e-03  8.2536719841731273e-03  7.9248150838906947e-03  7.5406326871394654e-03  7.0953151759838278e-03  6.5836273367286050e-03  6.0014404000871859e-03  5.3463580469168643e-03  4.6184370626057595e-03  3.8206679600076153e-03  2.9604717492559478e-03  2.0447808797958620e-03  1.1046518728094095e-03  8.4773598300689140e-05  6.6717406950730768e-05  8.7077027233569315e-04  1.6132391219096220e-03  2.3388350637541439e-03  3.0236703208714071e-03  3.6624755601551702e-03  4.2492047918425849e-03  4.7810086878287937e-03  5.2571742781288445e-03  5.6788603143328193e-03  6.0486197336020713e-03  6.3699659797521986e-03  6.6469842518260443e-03  6.8840129591896436e-03  7.0853982426816332e-03  7.2553166315879151e-03  7.3976557940820219e-03  7.5159416527820879e-03  7.6133003795915699e-03  7.6924451189301721e-03  7.7556790139174381e-03  7.8049078802882648e-03  7.8416574705209852e-03  7.8670916122899372e-03  7.8820285850682327e-03  7.8869539338374140e-03  7.8820285832071849e-03  7.8670916113586474e-03  7.8416574699582721e-03  7.8049078801614323e-03  7.7556790141345673e-03  7.6924451194288531e-03  7.6133003803261776e-03  7.5159416537213071e-03  7.3976557952180506e-03  7.2553166328515771e-03  7.0853982444028926e-03  6.8840129592194653e-03  6.6469842503327284e-03  6.3699659789444090e-03  6.0486197330994074e-03  5.6788603141330919e-03  5.2571742781096758e-03  4.7810086880072603e-03  4.2492047921234531e-03  3.6624755604560280e-03  3.0236703211612669e-03  2.3388350640003597e-03  1.6132391221045927e-03  8.7077027238540588e-04  6.6717407178944863e-05  5.2585687303948515e-05  6.8738482243247529e-04  1.2744061516768068e-03  1.8497130927104023e-03  2.3948748498523790e-03  2.9059118468042944e-03  3.3779745296240314e-03  3.8085303367431647e-03  4.1965963082009174e-03  4.5426020420321900e-03  4.8480744790993270e-03  5.1153406536727014e-03  5.3472480962636817e-03  5.5469251170578117e-03  5.7175870681052008e-03  5.8623887664652347e-03  5.9843186276603280e-03  6.0861278827606669e-03  6.1702875784396980e-03  6.2389663518197100e-03  6.2940228206922475e-03  6.3370074558915220e-03  6.3691698526217727e-03  6.3914682721918368e-03  6.4045791473052970e-03  6.4089049190268572e-03  6.4045791454768516e-03  6.3914682712471436e-03  6.3691698520478785e-03  6.3370074557603413e-03  6.2940228209089509e-03  6.2389663523407012e-03  6.1702875792091485e-03  6.0861278837665246e-03  5.9843186288317547e-03  5.8623887681376182e-03  5.7175870679963695e-03  5.5469251153067375e-03  5.3472480952172895e-03  5.1153406529635638e-03  4.8480744787345537e-03  4.5426020419224245e-03  4.1965963082737281e-03  3.8085303369721230e-03  3.3779745299326687e-03  2.9059118471204022e-03  2.3948748501748849e-03  1.8497130929875673e-03  1.2744061518894356e-03  6.8738482249585645e-04  5.2585687533129135e-05  4.1472174541382614e-05  5.4290796438391650e-04  1.0071593066663742e-03  1.4632440640928372e-03  1.8969087270905289e-03  2.3051601304551680e-03  2.6841491816327911e-03  3.0317144130933135e-03  3.3468163396536115e-03  3.6294739801497832e-03  3.8805570617173749e-03  4.1015837462118005e-03  4.2945217469469964e-03  4.4616108414688872e-03  4.6052134049093633e-03  4.7276954106815284e-03  4.8313366346175099e-03  4.9182666637146060e-03  4.9904223143590063e-03  5.0495218399549697e-03  5.0970515664643997e-03  5.1342611517287487e-03  5.1621642967551269e-03  5.1815423848918596e-03  5.1929491236630621e-03  5.1967147864439654e-03  5.1929491219348135e-03  5.1815423839835870e-03  5.1621642962058735e-03  5.1342611516184107e-03  5.0970515667071075e-03  5.0495218405082060e-03  4.9904223151769345e-03  4.9182666647270999e-03  4.8313366361421384e-03  4.7276954104632282e-03  4.6052134029678053e-03  4.4616108401482526e-03  4.2945217459539400e-03  4.1015837456273678e-03  3.8805570614428337e-03  3.6294739801030779e-03  3.3468163397999298e-03  3.0317144133538087e-03  2.6841491819618694e-03  2.3051601308054464e-03  1.8969087274347805e-03  1.4632440643877341e-03  1.0071593068993363e-03  5.4290796444498495e-04  4.1472174786089314e-05  3.2689000860251789e-05  4.2852465523048327e-04  7.9537501579986507e-04  1.1565163011832988e-03  1.5009122891272535e-03  1.8263185329450999e-03  2.1297040054151163e-03  2.4092724680534411e-03  2.6640394656648695e-03  2.8938098959408851e-03  3.0990409827939824e-03  3.2807053130336295e-03  3.4401504705828846e-03  3.5789691891414547e-0