<?xml version="1.0"?>
<VTKFile type="UnstructuredGrid"  version="0.1"  >
<UnstructuredGrid>
<Piece  NumberOfPoints="5101" NumberOfCells="10000">
<Points>
<DataArray  type="Float64"  NumberOfComponents="3"  format="ascii">0 0 0  0.2 0 0  0.4 0 0  0.6 0 0  0.8 0 0  1 0 0  1.2 0 0  1.4 0 0  1.6 0 0  1.8 0 0  2 0 0  2.2 0 0  2.4 0 0  2.6 0 0  2.8 0 0  3 0 0  3.2 0 0  3.4 0 0  3.6 0 0  3.8 0 0  4 0 0  4.2 0 0  4.4 0 0  4.6 0 0  4.8 0 0  5 0 0  5.2 0 0  5.4 0 0  5.6 0 0  5.8 0 0  6 0 0  6.2 0 0  6.4 0 0  6.6 0 0  6.8 0 0  7 0 0  7.2 0 0  7.4 0 0  7.6 0 0  7.8 0 0  8 0 0  8.199999999999999 0 0  8.4 0 0  8.6 0 0  8.800000000000001 0 0  9 0 0  9.199999999999999 0 0  9.4 0 0  9.6 0 0  9.800000000000001 0 0  10 0 0  0 0.2 0  0.2 0.2 0  0.4 0.2 0  0.6 0.2 0  0.8 0.2 0  1 0.2 0  1.2 0.2 0  1.4 0.2 0  1.6 0.2 0  1.8 0.2 0  2 0.2 0  2.2 0.2 0  2.4 0.2 0  2.6 0.2 0  2.8 0.2 0  3 0.2 0  3.2 0.2 0  3.4 0.2 0  3.6 0.2 0  3.8 0.2 0  4 0.2 0  4.2 0.2 0  4.4 0.2 0  4.6 0.2 0  4.8 0.2 0  5 0.2 0  5.2 0.2 0  5.4 0.2 0  5.6 0.2 0  5.8 0.2 0  6 0.2 0  6.2 0.2 0  6.4 0.2 0  6.6 0.2 0  6.8 0.2 0  7 0.2 0  7.2 0.2 0  7.4 0.2 0  7.6 0.2 0  7.8 0.2 0  8 0.2 0  8.199999999999999 0.2 0  8.4 0.2 0  8.6 0.2 0  8.800000000000001 0.2 0  9 0.2 0  9.199999999999999 0.2 0  9.4 0.2 0  9.6 0.2 0  9.800000000000001 0.2 0  10 0.2 0  0 0.4 0  0.2 0.4 0  0.4 0.4 0  0.6 0.4 0  0.8 0.4 0  1 0.4 0  1.2 0.4 0  1.4 0.4 0  1.6 0.4 0  1.8 0.4 0  2 0.4 0  2.2 0.4 0  2.4 0.4 0  2.6 0.4 0  2.8 0.4 0  3 0.4 0  3.2 0.4 0  3.4 0.4 0  3.6 0.4 0  3.8 0.4 0  4 0.4 0  4.2 0.4 0  4.4 0.4 0  4.6 0.4 0  4.8 0.4 0  5 0.4 0  5.2 0.4 0  5.4 0.4 0  5.6 0.4 0  5.8 0.4 0  6 0.4 0  6.2 0.4 0  6.4 0.4 0  6.6 0.4 0  6.8 0.4 0  7 0.4 0  7.2 0.4 0  7.4 0.4 0  7.6 0.4 0  7.8 0.4 0  8 0.4 0  8.199999999999999 0.4 0  8.4 0.4 0  8.6 0.4 0  8.800000000000001 0.4 0  9 0.4 0  9.199999999999999 0.4 0  9.4 0.4 0  9.6 0.4 0  9.800000000000001 0.4 0  10 0.4 0  0 0.6 0  0.2 0.6 0  0.4 0.6 0  0.6 0.6 0  0.8 0.6 0  1 0.6 0  1.2 0.6 0  1.4 0.6 0  1.6 0.6 0  1.8 0.6 0  2 0.6 0  2.2 0.6 0  2.4 0.6 0  2.6 0.6 0  2.8 0.6 0  3 0.6 0  3.2 0.6 0  3.4 0.6 0  3.6 0.6 0  3.8 0.6 0  4 0.6 0  4.2 0.6 0  4.4 0.6 0  4.6 0.6 0  4.8 0.6 0  5 0.6 0  5.2 0.6 0  5.4 0.6 0  5.6 0.6 0  5.8 0.6 0  6 0.6 0  6.2 0.6 0  6.4 0.6 0  6.6 0.6 0  6.8 0.6 0  7 0.6 0  7.2 0.6 0  7.4 0.6 0  7.6 0.6 0  7.8 0.6 0  8 0.6 0  8.199999999999999 0.6 0  8.4 0.6 0  8.6 0.6 0  8.800000000000001 0.6 0  9 0.6 0  9.199999999999999 0.6 0  9.4 0.6 0  9.6 0.6 0  9.800000000000001 0.6 0  10 0.6 0  0 0.8 0  0.2 0.8 0  0.4 0.8 0  0.6 0.8 0  0.8 0.8 0  1 0.8 0  1.2 0.8 0  1.4 0.8 0  1.6 0.8 0  1.8 0.8 0  2 0.8 0  2.2 0.8 0  2.4 0.8 0  2.6 0.8 0  2.8 0.8 0  3 0.8 0  3.2 0.8 0  3.4 0.8 0  3.6 0.8 0  3.8 0.8 0  4 0.8 0  4.2 0.8 0  4.4 0.8 0  4.6 0.8 0  4.8 0.8 0  5 0.8 0  5.2 0.8 0  5.4 0.8 0  5.6 0.8 0  5.8 0.8 0  6 0.8 0  6.2 0.8 0  6.4 0.8 0  6.6 0.8 0  6.8 0.8 0  7 0.8 0  7.2 0.8 0  7.4 0.8 0  7.6 0.8 0  7.8 0.8 0  8 0.8 0  8.199999999999999 0.8 0  8.4 0.8 0  8.6 0.8 0  8.800000000000001 0.8 0  9 0.8 0  9.199999999999999 0.8 0  9.4 0.8 0  9.6 0.8 0  9.800000000000001 0.8 0  10 0.8 0  0 1 0  0.2 1 0  0.4 1 0  0.6 1 0  0.8 1 0  1 1 0  1.2 1 0  1.4 1 0  1.6 1 0  1.8 1 0  2 1 0  2.2 1 0  2.4 1 0  2.6 1 0  2.8 1 0  3 1 0  3.2 1 0  3.4 1 0  3.6 1 0  3.8 1 0  4 1 0  4.2 1 0  4.4 1 0  4.6 1 0  4.8 1 0  5 1 0  5.2 1 0  5.4 1 0  5.6 1 0  5.8 1 0  6 1 0  6.2 1 0  6.4 1 0  6.6 1 0  6.8 1 0  7 1 0  7.2 1 0  7.4 1 0  7.6 1 0  7.8 1 0  8 1 0  8.199999999999999 1 0  8.4 1 0  8.6 1 0  8.800000000000001 1 0  9 1 0  9.199999999999999 1 0  9.4 1 0  9.6 1 0  9.800000000000001 1 0  10 1 0  0 1.2 0  0.2 1.2 0  0.4 1.2 0  0.6 1.2 0  0.8 1.2 0  1 1.2 0  1.2 1.2 0  1.4 1.2 0  1.6 1.2 0  1.8 1.2 0  2 1.2 0  2.2 1.2 0  2.4 1.2 0  2.6 1.2 0  2.8 1.2 0  3 1.2 0  3.2 1.2 0  3.4 1.2 0  3.6 1.2 0  3.8 1.2 0  4 1.2 0  4.2 1.2 0  4.4 1.2 0  4.6 1.2 0  4.8 1.2 0  5 1.2 0  5.2 1.2 0  5.4 1.2 0  5.6 1.2 0  5.8 1.2 0  6 1.2 0  6.2 1.2 0  6.4 1.2 0  6.6 1.2 0  6.8 1.2 0  7 1.2 0  7.2 1.2 0  7.4 1.2 0  7.6 1.2 0  7.8 1.2 0  8 1.2 0  8.199999999999999 1.2 0  8.4 1.2 0  8.6 1.2 0  8.800000000000001 1.2 0  9 1.2 0  9.199999999999999 1.2 0  9.4 1.2 0  9.6 1.2 0  9.800000000000001 1.2 0  10 1.2 0  0 1.4 0  0.2 1.4 0  0.4 1.4 0  0.6 1.4 0  0.8 1.4 0  1 1.4 0  1.2 1.4 0  1.4 1.4 0  1.6 1.4 0  1.8 1.4 0  2 1.4 0  2.2 1.4 0  2.4 1.4 0  2.6 1.4 0  2.8 1.4 0  3 1.4 0  3.2 1.4 0  3.4 1.4 0  3.6 1.4 0  3.8 1.4 0  4 1.4 0  4.2 1.4 0  4.4 1.4 0  4.6 1.4 0  4.8 1.4 0  5 1.4 0  5.2 1.4 0  5.4 1.4 0  5.6 1.4 0  5.8 1.4 0  6 1.4 0  6.2 1.4 0  6.4 1.4 0  6.6 1.4 0  6.8 1.4 0  7 1.4 0  7.2 1.4 0  7.4 1.4 0  7.6 1.4 0  7.8 1.4 0  8 1.4 0  8.199999999999999 1.4 0  8.4 1.4 0  8.6 1.4 0  8.800000000000001 1.4 0  9 1.4 0  9.199999999999999 1.4 0  9.4 1.4 0  9.6 1.4 0  9.800000000000001 1.4 0  10 1.4 0  0 1.6 0  0.2 1.6 0  0.4 1.6 0  0.6 1.6 0  0.8 1.6 0  1 1.6 0  1.2 1.6 0  1.4 1.6 0  1.6 1.6 0  1.8 1.6 0  2 1.6 0  2.2 1.6 0  2.4 1.6 0  2.6 1.6 0  2.8 1.6 0  3 1.6 0  3.2 1.6 0  3.4 1.6 0  3.6 1.6 0  3.8 1.6 0  4 1.6 0  4.2 1.6 0  4.4 1.6 0  4.6 1.6 0  4.8 1.6 0  5 1.6 0  5.2 1.6 0  5.4 1.6 0  5.6 1.6 0  5.8 1.6 0  6 1.6 0  6.2 1.6 0  6.4 1.6 0  6.6 1.6 0  6.8 1.6 0  7 1.6 0  7.2 1.6 0  7.4 1.6 0  7.6 1.6 0  7.8 1.6 0  8 1.6 0  8.199999999999999 1.6 0  8.4 1.6 0  8.6 1.6 0  8.800000000000001 1.6 0  9 1.6 0  9.199999999999999 1.6 0  9.4 1.6 0  9.6 1.6 0  9.800000000000001 1.6 0  10 1.6 0  0 1.8 0  0.2 1.8 0  0.4 1.8 0  0.6 1.8 0  0.8 1.8 0  1 1.8 0  1.2 1.8 0  1.4 1.8 0  1.6 1.8 0  1.8 1.8 0  2 1.8 0  2.2 1.8 0  2.4 1.8 0  2.6 1.8 0  2.8 1.8 0  3 1.8 0  3.2 1.8 0  3.4 1.8 0  3.6 1.8 0  3.8 1.8 0  4 1.8 0  4.2 1.8 0  4.4 1.8 0  4.6 1.8 0  4.8 1.8 0  5 1.8 0  5.2 1.8 0  5.4 1.8 0  5.6 1.8 0  5.8 1.8 0  6 1.8 0  6.2 1.8 0  6.4 1.8 0  6.6 1.8 0  6.8 1.8 0  7 1.8 0  7.2 1.8 0  7.4 1.8 0  7.6 1.8 0  7.8 1.8 0  8 1.8 0  8.199999999999999 1.8 0  8.4 1.8 0  8.6 1.8 0  8.800000000000001 1.8 0  9 1.8 0  9.199999999999999 1.8 0  9.4 1.8 0  9.6 1.8 0  9.800000000000001 1.8 0  10 1.8 0  0 2 0  0.2 2 0  0.4 2 0  0.6 2 0  0.8 2 0  1 2 0  1.2 2 0  1.4 2 0  1.6 2 0  1.8 2 0  2 2 0  2.2 2 0  2.4 2 0  2.6 2 0  2.8 2 0  3 2 0  3.2 2 0  3.4 2 0  3.6 2 0  3.8 2 0  4 2 0  4.2 2 0  4.4 2 0  4.6 2 0  4.8 2 0  5 2 0  5.2 2 0  5.4 2 0  5.6 2 0  5.8 2 0  6 2 0  6.2 2 0  6.4 2 0  6.6 2 0  6.8 2 0  7 2 0  7.2 2 0  7.4 2 0  7.6 2 0  7.8 2 0  8 2 0  8.199999999999999 2 0  8.4 2 0  8.6 2 0  8.800000000000001 2 0  9 2 0  9.199999999999999 2 0  9.4 2 0  9.6 2 0  9.800000000000001 2 0  10 2 0  0 2.2 0  0.2 2.2 0  0.4 2.2 0  0.6 2.2 0  0.8 2.2 0  1 2.2 0  1.2 2.2 0  1.4 2.2 0  1.6 2.2 0  1.8 2.2 0  2 2.2 0  2.2 2.2 0  2.4 2.2 0  2.6 2.2 0  2.8 2.2 0  3 2.2 0  3.2 2.2 0  3.4 2.2 0  3.6 2.2 0  3.8 2.2 0  4 2.2 0  4.2 2.2 0  4.4 2.2 0  4.6 2.2 0  4.8 2.2 0  5 2.2 0  5.2 2.2 0  5.4 2.2 0  5.6 2.2 0  5.8 2.2 0  6 2.2 0  6.2 2.2 0  6.4 2.2 0  6.6 2.2 0  6.8 2.2 0  7 2.2 0  7.2 2.2 0  7.4 2.2 0  7.6 2.2 0  7.8 2.2 0  8 2.2 0  8.199999999999999 2.2 0  8.4 2.2 0  8.6 2.2 0  8.800000000000001 2.2 0  9 2.2 0  9.199999999999999 2.2 0  9.4 2.2 0  9.6 2.2 0  9.800000000000001 2.2 0  10 2.2 0  0 2.4 0  0.2 2.4 0  0.4 2.4 0  0.6 2.4 0  0.8 2.4 0  1 2.4 0  1.2 2.4 0  1.4 2.4 0  1.6 2.4 0  1.8 2.4 0  2 2.4 0  2.2 2.4 0  2.4 2.4 0  2.6 2.4 0  2.8 2.4 0  3 2.4 0  3.2 2.4 0  3.4 2.4 0  3.6 2.4 0  3.8 2.4 0  4 2.4 0  4.2 2.4 0  4.4 2.4 0  4.6 2.4 0  4.8 2.4 0  5 2.4 0  5.2 2.4 0  5.4 2.4 0  5.6 2.4 0  5.8 2.4 0  6 2.4 0  6.2 2.4 0  6.4 2.4 0  6.6 2.4 0  6.8 2.4 0  7 2.4 0  7.2 2.4 0  7.4 2.4 0  7.6 2.4 0  7.8 2.4 0  8 2.4 0  8.199999999999999 2.4 0  8.4 2.4 0  8.6 2.4 0  8.800000000000001 2.4 0  9 2.4 0  9.199999999999999 2.4 0  9.4 2.4 0  9.6 2.4 0  9.800000000000001 2.4 0  10 2.4 0  0 2.6 0  0.2 2.6 0  0.4 2.6 0  0.6 2.6 0  0.8 2.6 0  1 2.6 0  1.2 2.6 0  1.4 2.6 0  1.6 2.6 0  1.8 2.6 0  2 2.6 0  2.2 2.6 0  2.4 2.6 0  2.6 2.6 0  2.8 2.6 0  3 2.6 0  3.2 2.6 0  3.4 2.6 0  3.6 2.6 0  3.8 2.6 0  4 2.6 0  4.2 2.6 0  4.4 2.6 0  4.6 2.6 0  4.8 2.6 0  5 2.6 0  5.2 2.6 0  5.4 2.6 0  5.6 2.6 0  5.8 2.6 0  6 2.6 0  6.2 2.6 0  6.4 2.6 0  6.6 2.6 0  6.8 2.6 0  7 2.6 0  7.2 2.6 0  7.4 2.6 0  7.6 2.6 0  7.8 2.6 0  8 2.6 0  8.199999999999999 2.6 0  8.4 2.6 0  8.6 2.6 0  8.800000000000001 2.6 0  9 2.6 0  9.199999999999999 2.6 0  9.4 2.6 0  9.6 2.6 0  9.800000000000001 2.6 0  10 2.6 0  0 2.8 0  0.2 2.8 0  0.4 2.8 0  0.6 2.8 0  0.8 2.8 0  1 2.8 0  1.2 2.8 0  1.4 2.8 0  1.6 2.8 0  1.8 2.8 0  2 2.8 0  2.2 2.8 0  2.4 2.8 0  2.6 2.8 0  2.8 2.8 0  3 2.8 0  3.2 2.8 0  3.4 2.8 0  3.6 2.8 0  3.8 2.8 0  4 2.8 0  4.2 2.8 0  4.4 2.8 0  4.6 2.8 0  4.8 2.8 0  5 2.8 0  5.2 2.8 0  5.4 2.8 0  5.6 2.8 0  5.8 2.8 0  6 2.8 0  6.2 2.8 0  6.4 2.8 0  6.6 2.8 0  6.8 2.8 0  7 2.8 0  7.2 2.8 0  7.4 2.8 0  7.6 2.8 0  7.8 2.8 0  8 2.8 0  8.199999999999999 2.8 0  8.4 2.8 0  8.6 2.8 0  8.800000000000001 2.8 0  9 2.8 0  9.199999999999999 2.8 0  9.4 2.8 0  9.6 2.8 0  9.800000000000001 2.8 0  10 2.8 0  0 3 0  0.2 3 0  0.4 3 0  0.6 3 0  0.8 3 0  1 3 0  1.2 3 0  1.4 3 0  1.6 3 0  1.8 3 0  2 3 0  2.2 3 0  2.4 3 0  2.6 3 0  2.8 3 0  3 3 0  3.2 3 0  3.4 3 0  3.6 3 0  3.8 3 0  4 3 0  4.2 3 0  4.4 3 0  4.6 3 0  4.8 3 0  5 3 0  5.2 3 0  5.4 3 0  5.6 3 0  5.8 3 0  6 3 0  6.2 3 0  6.4 3 0  6.6 3 0  6.8 3 0  7 3 0  7.2 3 0  7.4 3 0  7.6 3 0  7.8 3 0  8 3 0  8.199999999999999 3 0  8.4 3 0  8.6 3 0  8.800000000000001 3 0  9 3 0  9.199999999999999 3 0  9.4 3 0  9.6 3 0  9.800000000000001 3 0  10 3 0  0 3.2 0  0.2 3.2 0  0.4 3.2 0  0.6 3.2 0  0.8 3.2 0  1 3.2 0  1.2 3.2 0  1.4 3.2 0  1.6 3.2 0  1.8 3.2 0  2 3.2 0  2.2 3.2 0  2.4 3.2 0  2.6 3.2 0  2.8 3.2 0  3 3.2 0  3.2 3.2 0  3.4 3.2 0  3.6 3.2 0  3.8 3.2 0  4 3.2 0  4.2 3.2 0  4.4 3.2 0  4.6 3.2 0  4.8 3.2 0  5 3.2 0  5.2 3.2 0  5.4 3.2 0  5.6 3.2 0  5.8 3.2 0  6 3.2 0  6.2 3.2 0  6.4 3.2 0  6.6 3.2 0  6.8 3.2 0  7 3.2 0  7.2 3.2 0  7.4 3.2 0  7.6 3.2 0  7.8 3.2 0  8 3.2 0  8.199999999999999 3.2 0  8.4 3.2 0  8.6 3.2 0  8.800000000000001 3.2 0  9 3.2 0  9.199999999999999 3.2 0  9.4 3.2 0  9.6 3.2 0  9.800000000000001 3.2 0  10 3.2 0  0 3.4 0  0.2 3.4 0  0.4 3.4 0  0.6 3.4 0  0.8 3.4 0  1 
[...]
<PointData  Scalars="f_6"> 
<DataArray  type="Float64"  Name="f_6"  format="ascii">8.4242686668835071e-03  6.7441747988516015e-02  1.0037223970372755e-01  1.2252596295098402e-01  1.3851778010214374e-01  1.5037712856341384e-01  1.5934793411144471e-01  1.6621676345388961e-01  1.7152642508563135e-01  1.7565943557882932e-01  1.7889436045133497e-01  1.8143726201221250e-01  1.8344296766385035e-01  1.8502903220443617e-01  1.8628549665313499e-01  1.8728177811061555e-01  1.8807165532001927e-01  1.8869692262220256e-01  1.8919010098000133e-01  1.8957646556434934e-01  1.8987556965001517e-01  1.9010239065977566e-01  1.9026818757052621e-01  1.9038113316730065e-01  1.9044676607437844e-01  1.9046829364725451e-01  1.9044676607223895e-01  1.9038113316715308e-01  1.9026818757078742e-01  1.9010239066037257e-01  1.8987556965085078e-01  1.8957646556530822e-01  1.8919010098104974e-01  1.8869692262327944e-01  1.8807165532108558e-01  1.8728177811168031e-01  1.8628549665418356e-01  1.8502903220544539e-01  1.8344296766482815e-01  1.8143726201310525e-01  1.7889436045224114e-01  1.7565943557972966e-01  1.7152642508652066e-01  1.6621676345476014e-01  1.5934793411232848e-01  1.5037712856428509e-01  1.3851778010295712e-01  1.2252596295175568e-01  1.0037223970442344e-01  6.7441747988813888e-02  8.4242686670534597e-03  4.1206212148602933e-03  4.2603668018473942e-02  6.9764909590742719e-02  9.0459824355989316e-02  1.0550840592080599e-01  1.1692097810439958e-01  1.2559203609615782e-01  1.3227774776993104e-01  1.3746155413692548e-01  1.4150892407793780e-01  1.4468312711270548e-01  1.4718256944373193e-01  1.4915661615610321e-01  1.5071938577348876e-01  1.5195854181596988e-01  1.5294187081642954e-01  1.5372200107128167e-01  1.5433990738605913e-01  1.5482751987231261e-01  1.5520968470283644e-01  1.5550564253178439e-01  1.5573014341895564e-01  1.5589428275985190e-01  1.5600611875889023e-01  1.5607111447299715e-01  1.5609243429425737e-01  1.5607111447107799e-01  1.5600611875878168e-01  1.5589428276009795e-01  1.5573014341959002e-01  1.5550564253261923e-01  1.5520968470380822e-01  1.5482751987336360e-01  1.5433990738713957e-01  1.5372200107236569e-01  1.5294187081751001e-01  1.5195854181702517e-01  1.5071938577450683e-01  1.4915661615709555e-01  1.4718256944464447e-01  1.4468312711362299e-01  1.4150892407884458e-01  1.3746155413782613e-01  1.3227774777079496e-01  1.2559203609703454e-01  1.1692097810526658e-01  1.0550840592163055e-01  9.0459824356734622e-02  6.9764909591536320e-02  4.2603668018737037e-02  4.1206212149309408e-03  2.2111663665411231e-03  2.8834170193962443e-02  5.0007454896541279e-02  6.7114733382393807e-02  8.0430032608687752e-02  9.0732765720138622e-02  9.8750572752925245e-02  1.0499725179785151e-01  1.0989127415397228e-01  1.1373673169403546e-01  1.1676927580647474e-01  1.1916697557399948e-01  1.2106714793127310e-01  1.2257560352246476e-01  1.2377447240507848e-01  1.2472768949396848e-01  1.2548518493011784e-01  1.2608601143506212e-01  1.2656071712194245e-01  1.2693314676932282e-01  1.2722181285779413e-01  1.2744093689103445e-01  1.2760123463830991e-01  1.2771049877880131e-01  1.2777401744817554e-01  1.2779485566321586e-01  1.2777401744626751e-01  1.2771049877868554e-01  1.2760123463858911e-01  1.2744093689168359e-01  1.2722181285865686e-01  1.2693314677031026e-01  1.2656071712299558e-01  1.2608601143615086e-01  1.2548518493122934e-01  1.2472768949507267e-01  1.2377447240615180e-01  1.2257560352351730e-01  1.2106714793229301e-01  1.1916697557495605e-01  1.1676927580742671e-01  1.1373673169495382e-01  1.0989127415489014e-01  1.0499725179874314e-01  9.8750572753811619e-02  9.0732765721017059e-02  8.0430032609548854e-02  6.7114733383281514e-02  5.0007454896829437e-02  2.8834170193811331e-02  2.2111663670308845e-03  1.6654420805039109e-03  2.0545059645721439e-02  3.6560824246953789e-02  5.0324489998068628e-02  6.1473559055068634e-02  7.0438244581570664e-02  7.7560400234168783e-02  8.3217285425136192e-02  8.7703091809640338e-02  9.1264953291756046e-02  9.4095492321969079e-02  9.6347878789700969e-02  9.8142078319173598e-02  9.9572538815359046e-02  1.0071350613200734e-01  1.0162344957825813e-01  1.0234843183836814e-01  1.0292474425160324e-01  1.0338094360725837e-01  1.0373942975034758e-01  1.0401766357687821e-01  1.0422910303832363e-01  1.0438391549577948e-01  1.0448951011971740e-01  1.0455092246211940e-01  1.0457107407412580e-01  1.0455092246015162e-01  1.0448951011960191e-01  1.0438391549604155e-01  1.0422910303898913e-01  1.0401766357775920e-01  1.0373942975135916e-01  1.0338094360833470e-01  1.0292474425271278e-01  1.0234843183950094e-01  1.0162344957939212e-01  1.0071350613312813e-01  9.9572538816455849e-02  9.8142078320228088e-02  9.6347878790714159e-02  9.4095492322960161e-02  9.1264953292724479e-02  8.7703091810603526e-02  8.3217285426064519e-02  7.7560400235106866e-02  7.0438244582516907e-02  6.1473559056101988e-02  5.0324489998412290e-02  3.6560824246743333e-02  2.0545059645714441e-02  1.6654420809266149e-03  1.1788902745092089e-03  1.5119552485249113e-02  2.7270411289732670e-02  3.8096438902608346e-02  4.7227480840118678e-02  5.4776315788763429e-02  6.0934296939535906e-02  6.5914203841408073e-02  6.9926007477643243e-02  7.3149140627465414e-02  7.5735996989796259e-02  7.7810858066017924e-02  7.9474679281051341e-02  8.0808574586558948e-02  8.1877540163167575e-02  8.2733486284682453e-02  8.3417794703288806e-02  8.3963381170753346e-02  8.4396351821883667e-02  8.4737318340818990e-02  8.5002434677648356e-02  8.5204206657585824e-02  8.5352116060776514e-02  8.5453091721245655e-02  8.5511852415180029e-02  8.5531139615515159e-02  8.5511852413148612e-02  8.5453091721054211e-02  8.5352116061019237e-02  8.5204206658264642e-02  8.5002434678547664e-02  8.4737318341855730e-02  8.4396351823001967e-02  8.3963381171898013e-02  8.3417794704454651e-02  8.2733486285835878e-02  8.1877540164339749e-02  8.0808574587713233e-02  7.9474679282160676e-02  7.7810858067093036e-02  7.5735996990864363e-02  7.3149140628482656e-02  6.9926007478682412e-02  6.5914203842424662e-02  6.0934296940576026e-02  5.4776315789959958e-02  4.7227480840454902e-02  3.8096438902346479e-02  2.7270411289752990e-02  1.5119552485199562e-02  1.1788902749462849e-03  8.9279068410518046e-04  1.1336566082194886e-02  2.0619360406183927e-02  2.9109126286311838e-02  3.6461816324345121e-02  4.2709098152742604e-02  4.7916102090657837e-02  5.2210389267562780e-02  5.5723429681772463e-02  5.8583489288729876e-02  6.0903829065759765e-02  6.2782036225156143e-02  6.4299773928854470e-02  6.5524551561944061e-02  6.6511584565836848e-02  6.7305744066455439e-02  6.7943301185251131e-02  6.8453441933573042e-02  6.8859536707088997e-02  6.9180184651212076e-02  6.9430058961868324e-02  6.9620580944688024e-02  6.9760448163068242e-02  6.9856038220364500e-02  6.9911705502215524e-02  6.9929984014871369e-02  6.9911705500060442e-02  6.9856038220098254e-02  6.9760448163264932e-02  6.9620580945362304e-02  6.9430058962769992e-02  6.9180184652262458e-02  6.8859536708243088e-02  6.8453441934754194e-02  6.7943301186452837e-02  6.7305744067663945e-02  6.6511584567054916e-02  6.5524551563146446e-02  6.4299773930031223e-02  6.2782036226315341e-02  6.0903829066914376e-02  5.8583489289877486e-02  5.5723429682903232e-02  5.2210389268742399e-02  4.7916102092062388e-02  4.2709098153075289e-02  3.6461816323970143e-02  2.9109126286308851e-02  2.0619360406205055e-02  1.1336566082187602e-02  8.9279068451047431e-04  6.7217892220821534e-04  8.6210293459388198e-03  1.5760865774127639e-02  2.2407237573256588e-02  2.8290725735897172e-02  3.3393073046260248e-02  3.7733170753617463e-02  4.1374835201786933e-02  4.4400650044494040e-02  4.6896549891226734e-02  4.8944642840630666e-02  5.0618662497506933e-02  5.1982797612783606e-02  5.3091616357774256e-02  5.3990824506712561e-02  5.4718275429836497e-02  5.5305054480757898e-02  5.5776504103110497e-02  5.6153140149028669e-02  5.6451439954924687e-02  5.6684502214086670e-02  5.6862586993531347e-02  5.6993547453344597e-02  5.7083165067349881e-02  5.7135398882139921e-02  5.7152557339512251e-02  5.7135398879871589e-02  5.7083165066979150e-02  5.6993547453487003e-02  5.6862586994172910e-02  5.6684502214987033e-02  5.6451439955987490e-02  5.6153140150196179e-02  5.5776504104325178e-02  5.5305054481996678e-02  5.4718275431101845e-02  5.3990824507982628e-02  5.3091616359024353e-02  5.1982797614057295e-02  5.0618662498778590e-02  4.8944642841922667e-02  4.6896549892559404e-02  4.4400650045817398e-02  4.1374835203437245e-02  3.7733170753987272e-02  3.3393073045766691e-02  2.8290725735849068e-02  2.2407237573295505e-02  1.5760865774207908e-02  8.6210293459097996e-03  6.7217892261373145e-04  5.1606942199361645e-04  6.6189340511839606e-03  1.2146020702763051e-02  1.7358287510213732e-02  2.2046282457609576e-02  2.6183696631626070e-02  2.9762220740246106e-02  3.2813285920124752e-02  3.5384803963675646e-02  3.7533415470079178e-02  3.9316538375657115e-02  4.0788559827682376e-02  4.1998596068671186e-02  4.2989719271841219e-02  4.3798902775253605e-02  4.4457401562107091e-02  4.4991321710394765e-02  4.5422251755741883e-02  4.5767879230010751e-02  4.6042553804770459e-02  4.6257779464245315e-02  4.6422630387160213e-02  4.6544091613998896e-02  4.6627328514618066e-02  4.6675889953990336e-02  4.6691849735590596e-02  4.6675889951574824e-02  4.6627328514127937e-02  4.6544091614047760e-02  4.6422630387741887e-02  4.6257779465124237e-02  4.6042553805835031e-02  4.5767879231189329e-02  4.5422251756991758e-02  4.4991321711676142e-02  4.4457401563433245e-02  4.3798902776592021e-02  4.2989719273207105e-02  4.1998596070060297e-02  4.0788559829117436e-02  3.9316538377130041e-02  3.7533415471624774e-02  3.5384803965608391e-02  3.2813285920543833e-02  2.9762220739612395e-02  2.6183696631570819e-02  2.2046282457664552e-02  1.7358287510317302e-02  1.2146020702875673e-02  6.6189340511540237e-03  5.1606942238945107e-04  3.9774796739346004e-04  5.1206795486142742e-03  9.4212428531076607e-03  1.3516478270374018e-02  1.7247015728590016e-02  2.0585289805671640e-02  2.3514743288041092e-02  2.6047325773913478e-02  2.8210146766697045e-02  3.0039163940492407e-02  3.1573765181810654e-02  3.2853133122683252e-02  3.3914090834318025e-02  3.4789942232017888e-02  3.5510017175912213e-02  3.6099639669681778e-02  3.6580341851260134e-02  3.6970199398770318e-02  3.7284211456107157e-02  3.7534678383444167e-02  3.7731551010073770e-02  3.7882737786621504e-02  3.7994363915271834e-02  3.8070980883525077e-02  3.8115727031589657e-02  3.8130440633181072e-02  3.8115727029019747e-02  3.8070980882899466e-02  3.7994363915208683e-02  3.7882737787105117e-02  3.7731551010888334e-02  3.7534678384479617e-02  3.7284211457304380e-02  3.6970199400067467e-02  3.6580341852630885e-02  3.6099639671092254e-02  3.5510017177371699e-02  3.4789942233533815e-02  3.3914090835890268e-02  3.2853133124308050e-02  3.1573765183500094e-02  3.0039163942706507e-02  2.8210146767175263e-02  2.6047325773140718e-02  2.3514743287963675e-02  2.0585289805741494e-02  1.7247015728778823e-02  1.3516478270510958e-02  9.4212428532686604e-03  5.1206795485793785e-03  3.9774796779459013e-04  3.0889084563028122e-04  3.9844574589776140e-03  7.3455928125232602e-03  1.0570405237617807e-02  1.3537458870854779e-02  1.6223275213890258e-02  1.8608905164880771e-02  2.0696730850665493e-02  2.2500888575894135e-02  2.4043725507482207e-02  2.5351677327569891e-02  2.6452498803720664e-02  2.7373314770122986e-02  2.8139444591913417e-02  2.8773767888444015e-02  2.9296470192272252e-02  2.9725030067139471e-02  3.0074349401321861e-02  3.0356958049836524e-02  3.0583247420879933e-02  3.0761704208631193e-02  3.0899126907947140e-02  3.1000815268794182e-02  3.1070727592497589e-02  3.1111603597884414e-02  3.1125052115049814e-02  3.1111603595186998e-02  3.1070727591727083e-02  3.1000815268610940e-02  3.0899126908337290e-02  3.0761704209392435e-02  3.0583247421900262e-02  3.0356958051056475e-02  3.0074349402674231e-02  2.9725030068592125e-02  2.9296470193810500e-02  2.8773767890038351e-02  2.8139444593616069e-02  2.7373314771924871e-02  2.6452498805583691e-02  2.5351677330053269e-02  2.4043725507971330e-02  2.2500888574905679e-02  2.0696730850571981e-02  1.8608905164968301e-02  1.6223275214161410e-02  1.3537458871077226e-02  1.0570405237838146e-02  7.3455928126987015e-03  3.9844574589550123e-03  3.0889084603201515e-04  2.4086338673074301e-04  3.1147887563286337e-03  5.7511900526657118e-03  8.2958136991193015e-03  1.0656088382024130e-02  1.2812942944458432e-02  1.4748656635828165e-02  1.6460815216363545e-02  1.7956049395803211e-02  1.9247798353801533e-02  2.0353513527804873e-02  2.1292557110968894e-02  2.2084630434806261e-02  2.2748710855837979e-02  2.3302395379581554e-02  2.3761548024316258e-02  2.4140159776995448e-02  2.4450347671048148e-02  2.4702437831618049e-02  2.4905092991413302e-02  2.5065457364558178e-02  2.5189300971154308e-02  2.5281152044389427e-02  2.5344410615550341e-02  2.5381439298489756e-02  2.5393629113375969e-02  2.5381439295740053e-02  2.5344410614644618e-02  2.5281152044071102e-02  2.5189300971436308e-02  2.5065457365256293e-02  2.4905092992419373e-02  2.4702437832853048e-02  2.4450347672436680e-02  2.4140159778516895e-02  2.3761548025970688e-02  2.3302395381370956e-02  2.2748710857770922e-02  2.2084630436886122e-02  2.1292557113688111e-02  2.0353513528328301e-02  1.9247798352601229e-02  1.7956049395582766e-02  1.6460815216417703e-02  1.4748656636142703e-02  1.2812942944836196e-02  1.0656088382335430e-02  8.2958136993938059e-03  5.7511900528713312e-03  3.1147887563206635e-03  2.4086338713167352e-04  1.8856490812325780e-04  2.4438841003363437e-03  4.5180143350885670e-03  6.5296398422399014e-03  8.4079300108282715e-03  1.0138009486615229e-02  1.1704431878140372e-02  1.3102844187554148e-02  1.4335586326793987e-02  1.5410447823824974e-02  1.6338743918519215e-02  1.7133811289418183e-02  1.7809789265848829e-02  1.8380734651477330e-02  1.8860020108484501e-02  1.9259962844475075e-02  1.9591626001030087e-02  1.9864742259081657e-02  2.0087718383920018e-02  2.0267689020638635e-02  2.0410596464442946e-02  2.0521279944328608e-02  2.0603563173316151e-02  2.0660332728901991e-02  2.0693602522456930e-02  2.0704561443562027e-02  2.0693602519631663e-02  2.0660332727856924e-02  2.0603563172840542e-02  2.0521279944498715e-02  2.0410596465060622e-02  2.0267689021641788e-02  2.0087718385154260e-02  1.9864742260530571e-02  1.9591626002621817e-02  1.9259962846284100e-02  1.8860020110531828e-02  1.8380734653687454e-02  1.7809789268789813e-02  1.7133811289945584e-02  1.6338743917076608e-02  1.5410447823491496e-02  1.4335586326754791e-02  1.3102844187820912e-02  1.1704431878602702e-02  1.0138009487086829e-02  8.4079300112171046e-03  6.5296398425727445e-03  4.5180143353275104e-03  2.4438841003657395e-03  1.8856490852211998e-04  1.4804224650828113e-04  1.9230387107180091e-03  3.5586856255558443e-03  5.1513769013640442e-03  6.6467220868820214e-03  8.0333108313749273e-03  9.2982566068908704e-03  1.0436683124033074e-02  1.1448624876504547e-02  1.2338343270288668e-02  1.3113037693361196e-02  1.3781785228570339e-02  1.4354630600469464e-02  1.4841882300193940e-02  1.5253599790607374e-02  1.5599246978945868e-02  1.5887478830502701e-02  1.6126028379397042e-02  1.6321665077537954e-02  1.6480200543442011e-02  1.6606523009421125e-02  1.6704646447459840e-02  1.6777764222702891e-02  1.6828300154226490e-02  1.6857952149839810e-02  1.6867725248726737e-02  1.6857952146894010e-02  1.6828300153031151e-02  1.6777764222087432e-02  1.6704646447518675e-02  1.6606523009981784e-02  1.6480200544404720e-02  1.6321665078814798e-02  1.6126028380929483e-02  1.5887478832281730e-02  1.5599246980974568e-02  1.5253599792868918e-02  1.4841882303230360e-02  1.4354630600946432e-02  1.3781785226860561e-02  1.3113037692825140e-02  1.2338343270199488e-02  1.1448624876681275e-02  1.0436683124454720e-02  9.2982566074820902e-03  8.0333108319232283e-03  6.6467220873481468e-03  5.1513769017306485e-03  3.5586856258441072e-03  1.9230387107760036e-03  1.4804224691030964e-04  1.1648645475211568e-04  1.5164587159689836e-03  2.8086041350365871e-03  4.0710131352454911e-03  5.2617675473765778e-03  6.3722197153345548e-03  7.3918696698087195e-03  8.3160348757744720e-03  9.1436002343491963e-03  9.8766777270973879e-03  1.0519742885238348e-02  1.1078901692627605e-02  1.1561225405250902e-02  1.1974209078174742e-02  1.2325354059962877e-02  1.2621866412909700e-02  1.2870453883628123e-02  1.3077201556951386e-02  1.3247506737108490e-02  1.3386055873777222e-02  1.3496829259936371e-02  1.3583122214144205e-02  1.3647574154676372e-02  1.3692199241269789e-02  1.3718414088453999e-02  1.3727059472451774e-02  1.3718414085415827e-02  1.3692199239935270e-02  1.3647574153949626e-02  1.3583122214122867e-02  1.3496829260455114e-02  1.3386055874741554e-02  1.3247506738447755e-02  1.3077201558620162e-02  1.2870453885635340e-02  1.2621866415152023e-02  1.2325354062957896e-02  1.1974209078497070e-02  1.1561225403201286e-02  1.1078901691809492e-02  1.0519742884959174e-02  9.8766777272557334e-03  9.1436002347003321e-03  8.3160348763551880e-03  7.3918696704833205e-03  6.3722197159298026e-03  5.2617675479069027e-03  4.0710131356590179e-03  2.8086041353639893e-03  1.5164587160478346e-03  1.1648645515144595e-04  9.1787995599147836e-05  1.1975082313281198e-03  2.2194069827343840e-03  3.2206041953994962e-03  4.1686944407582829e-03  5.0571674765083497e-03  5.8776002433226834e-03  6.6258126858113591e-03  7.3002071457653819e-03  7.9016221960963810e-03  8.4327562959524791e-03  8.8976658807361411e-03  9.3012869575810064e-03  9.6490278555435467e-03  9.9464399160070823e-03  1.0198966658047400e-02  1.0411763620336552e-02  1.0589577677414691e-02  1.0736673487083693e-02  1.0856795230662476e-02  1.0953153227785898e-02  1.1028426732400981e-02  1.1084775980969363e-02  1.1123858175850012e-02  1.1146843474838374e-02  1.1154428202312463e-02  1.1146843471752769e-02  1.1123858174433980e-02  1.1084775980173794e-02  1.1028426732346577e-02  1.0953153228308084e-02  1.0856795231676540e-02  1.0736673488532618e-02  1.0589577679254362e-02  1.0411763622467879e-02  1.0198966661006120e-02  9.9464399161142986e-03  9.6490278531209256e-03  9.3012869563222009e-03  8.8976658801547988e-03  8.4327562959659406e-03  7.9016221964022578e-03  7.3002071462795358e-03  6.6258126865118049e-03  5.8776002440573119e-03  5.0571674771442516e-03  4.1686944413432412e-03  3.2206041958691423e-03  2.2194069831016419e-03  1.1975082314168105e-03  9.1787995999298926e-05  7.2366761844530798e-05  9.4611467041246660e-04  1.7544997774493767e-03  2.5484122295261267e-03  3.3027429107829608e-03  4.0126133168344909e-03  4.6713358865737081e-03  5.2753343119530177e-03  5.8228973880276045e-03  6.3141405346330672e-03  6.7506204677464515e-03  7.1349942322373374e-03  7.4706788286603891e-03  7.7615498836929508e-03  8.0116877496224665e-03  8.2251753581451849e-03  8.4059454889908822e-03  8.5576717291078481e-03  8.6836957120033347e-03  8.7869828521901765e-03  8.8700992131298222e-03  8.9352030769359915e-03  8.9840458406908342e-03  9.0179779553322802e-03  9.0379566329188039e-03  9.0445529316722437e-03  9.0379566299115584e-03  9.0179779539086759e-03  8.9840458398940306e-03  8.9352030769016492e-03  8.8700992137008307e-03  8.7869828532956828e-03  8.6836957135879942e-03  8.5576717310174889e-03  8.4059454917403253e-03  8.2251753580459414e-03  8.0116877468277316e-03  7.7615498820242552e-03  7.4706788275985120e-03  7.1349942319034370e-03  6.7506204679168534e-03  6.3141405350698255e-03  5.8228973886885046e-03  5.2753343127226772e-03  4.6713358873587503e-03  4.0126133175307499e-03  3.3027429114100876e-03  2.5484122300260606e-03  1.7544997778587478e-03  9.4611467050652635e-04  7.2366762257781544e-05  5.7020948533765990e-05  7.4699934367077937e-04  1.3859328121273243e-03  2.0147193949010605e-03  2.6138811752234540e-03  3.1797746974459545e-03  3.7071315672941455e-03  4.1929752862394547e-03  4.6356751919112982e-03  5.0349636359927159e-03  5.3916776752654704e-03  5.7075286250506552e-03  5.9848617632670730e-03  6.2264360364181828e-0