#     DFTpy    
  CRYSTAL 
    
  PRIMVEC    
  4.05    0.0    0.0    
  0.0    4.05    0.0    
  0.0    0.0    4.05    
  PRIMCOORD    
  4    1    
  Al    0.0    0.0    0.0    
  Al    0.0    2.025    2.025    
  Al    2.025    0.0    2.025    
  Al    2.025    2.025    0.0    
  BEGIN_BLOCK_DATAGRID_3D    
  3d_datagrid_density    
  BEGIN_DATAGRID_3D#0    
  21    21    21    
  0.0    0.0    0.0    
  4.05    0.0    0.0    
  0.0    4.05    0.0    
  0.0    0.0    4.05    
  0.06533182340597377    0.07430051776529012    0.10333524462105313    0.1523821364981534    0.19573159010151414    
  0.19937260264475226    0.1806725545293672    0.1630219223585434    0.15092089175178638    0.14439319572589962    
  0.14229968271750396    0.14439322465802362    0.1509208997662669    0.16302192696735204    0.18067255648231376    
  0.19937260458360972    0.19573156073967304    0.15238214696422314    0.1033352175900866    0.07430051316466031    
  0.06533182340597377    0.07430051978192885    0.08370637067127197    0.11356847532081531    0.16132915283037458    
  0.1991669787359516    0.1989974085213372    0.18045701375281792    0.16368170066503904    0.15236232178405112    
  0.1463133572125652    0.14439321450543072    0.14631334826371192    0.15236231587430119    0.16368168316628914    
  0.18045703387119288    0.1989974275530574    0.19916699769483168    0.16132914473080476    0.11356847243586833    
  0.08370638300837323    0.07430051978192885    0.10333523980006785    0.11356848098377642    0.1436731124918913    
  0.1837536261436492    0.20528185386966724    0.1972324660209252    0.18018944695083686    0.16615236806536704    
  0.15711042568757724    0.15236232571345176    0.1509209068193796    0.15236229418962274    0.15711046913904422    
  0.16615232026178114    0.18018947439737892    0.1972324519192534    0.20528184909090477    0.18375362319338018    
  0.14367309113132243    0.1135685089464399    0.10333523980006785    0.152382150446577    0.16132912528579743    
  0.18375361370185936    0.20408662046416057    0.20579110668159045    0.1938759581103414    0.18092695867034048    
  0.17151002210787247    0.16615230588781543    0.16368166850560245    0.16302194895298333    0.16368168438036176    
  0.16615236332731603    0.1715099932752052    0.18092696355237042    0.19387592285646313    0.20579110310136126    
  0.2040866430883639    0.18375360925389203    0.16132915365579648    0.152382150446577    0.19573160310873497    
  0.19916700984133434    0.20528185524941786    0.20579108257729728    0.19907172030484624    0.1904970638512684    
  0.18407237989398065    0.18092699450962402    0.18018942359539472    0.18045704177657462    0.18067255294121543    
  0.18045700332294717    0.18018946099372649    0.18092696208455603    0.1840724015538587    0.19049703569744603    
  0.19907172536158882    0.20579112943894617    0.2052818319549684    0.19916698718173273    0.19573160310873497    
  0.19937259000472285    0.19899742211538882    0.1972324129742535    0.19387594988165996    0.19049703288581393    
  0.18906707690295058    0.19049704132500267    0.1938759199283336    0.19723241752351248    0.19899739918353676    
  0.19937259319797382    0.19899739584473497    0.19723245405899578    0.1938759335273233    0.19049704164711007    
  0.18906707925987196    0.19049701704326874    0.1938759578539166    0.19723240455786492    0.19899740455728018    
  0.19937259000472285    0.18067253185933765    0.1804570551146004    0.1801894710955074    0.1809269899516337    
  0.18407238868884915    0.19049704933482103    0.19907174614076306    0.20579108651617062    0.20528185262849508    
  0.1991669934547699    0.19573160995546585    0.19916697233984954    0.20528186178719343    0.20579106903422015    
  0.19907175504662067    0.1904970276152218    0.18407239304719805    0.18092698890936326    0.1801894674415375    
  0.1804570532876266    0.18067253185933765    0.16302194315711457    0.16368166571163628    0.16615234092242612    
  0.17151002847022892    0.18092696397520372    0.19387596711475216    0.20579107152823284    0.2040866623713946    
  0.18375362127756853    0.16132914466802115    0.1523821771688769    0.16132912658223547    0.18375363495015165    
  0.20408661277880555    0.20579112220771473    0.19387594783093456    0.1809269695064223    0.17151000581645404    
  0.16615231679523276    0.16368171259556305    0.16302194315711457    0.15092090039560427    0.15236230401205894    
  0.1571104488146773    0.16615233653057515    0.1801894620139367    0.19723246935015315    0.2052818673448644    
  0.18375364396676766    0.14367307257364878    0.11356848856098496    0.10333523590887066    0.11356848907760615    
  0.1436731231179317    0.18375359674598085    0.20528185751362077    0.1972324472902973    0.18018946831993987    
  0.16615232799853472    0.1571104561381478    0.1523622952469089    0.15092090039560427    0.14439323962644426    
  0.1463133559576989    0.15236232752081483    0.16368169717564737    0.18045701307760656    0.19899742410034943    
  0.19916697653279603    0.1613291398285771    0.11356848619855417    0.08370634836766086    0.07430050159113047    
  0.08370636480660698    0.11356849678347976    0.16132910878778925    0.1991670058150042    0.1989974086191148    
  0.18045700373160253    0.16368173613023623    0.1523623110468719    0.14631333692047574    0.14439323962644426    
  0.14229968974947885    0.1443932087346106    0.1509208749029252    0.1630219448788099    0.18067253523046686    
  0.19937260266822981    0.19573157941939298    0.1523821366169241    0.10333524511895496    0.07430051695046996    
  0.06533182135523848    0.07430050922292707    0.10333526640099942    0.15238212891748762    0.19573158416971684    
  0.1993726036683165    0.18067252935322534    0.1630219362657042    0.15092088333812004    0.14439321280305212    
  0.14229968974947885    0.14439323039746577    0.1463133508078753    0.15236231995277152    0.1636817179049258    
  0.18045701274692136    0.19899741275788815    0.1991669916036462    0.16132914270866544    0.11356848514014542    
  0.0837063654443647    0.07430051477986478    0.08370635997389238    0.11356848591473452    0.16132915355699043    
  0.1991670144923925    0.1989974253372752    0.18045700711195017    0.16368173368070252    0.152362287696767    
  0.14631336287203053    0.14439323039746577    0.1509208987026659    0.15236229324512982    0.1571104673739305    
  0.16615232603994526    0.18018945707421602    0.19723244177921398    0.20528184251726841    0.18375364339581865    
  0.14367306012653275    0.11356849611252767    0.10333524136659629    0.11356848438083209    0.143673104048865    
  0.18375359351484175    0.20528184680974276    0.1972324345391959    0.18018947049983325    0.16615231781012935    
  0.15711044022622134    0.15236232327270335    0.1509208987026659    0.16302193307681465    0.1636817080499611    
  0.1661523401377204    0.17151003343229246    0.1809269980167771    0.19387594378376252    0.20579112995095847    
  0.20408662278320808    0.18375360270510144    0.16132911551953588    0.1523821442644969    0.1613291526542595    
  0.18375365142123035    0.20408661211890589    0.20579108181334735    0.1938759375514707    0.18092697979807315    
  0.17151002723933279    0.16615231756826274    0.16368168206978936    0.16302193307681465    0.18067256578343585    
  0.18045703295127807    0.18018947523896567    0.18092695130263883    0.1840723671414549    0.19049704473802148    
  0.19907173764854055    0.20579115213966215    0.20528184101712252    0.19916700677573038    0.1957315612799757    
  0.19916698699866525    0.20528185610235092    0.20579109683058228    0.1990717611015345    0.1904970434873851    
  0.1840723927590593    0.1809269835889972    0.18018946232124047    0.18045703272767546    0.18067256578343585    
  0.1993725890033756    0.1989974108028193    0.19723242449360387    0.1938759695812214    0.19049703241387342    
  0.1890670842102113    0.19049702898805299    0.19387592395738573    0.19723241271629954    0.19899740863893223    
  0.1993726104819859    0.19899737636116008    0.19723243789903008    0.19387592433840278    0.1904970578413944    
  0.18906707895256283    0.19049702223453338    0.19387593911508044    0.19723242214120615    0.1989974144441657    
  0.1993725890033756    0.19573159915251848    0.199166998807191    0.2052818566999346    0.20579111985429963    
  0.19907175698166266    0.19049702247812395    0.18407239488082044    0.18092697771066746    0.18018944161334163    
  0.180457025407106    0.18067255246105177    0.18045701425877234    0.18018949233908943    0.18092696478285267    
  0.18407242478887614    0.19049704675132345    0.19907174370691177    0.20579111953060283    0.20528185649788885    
  0.1991669836209576    0.19573159915251848    0.15238217306926352    0.16132910885062773    0.18375360717483546    
  0.2040866509563893    0.20579109995014103    0.19387593429174566    0.18092696387599658    0.17151001188748247    
  0.16615234074019114    0.16368169291759685    0.1630219338655476    0.16368170543860652    0.16615235969567727    
  0.17151000184941811    0.18092697361111293    0.19387593693242292    0.20579111302327116    0.20408662912537337    
  0.1837535974682333    0.1613291276011902    0.15238217306926352    0.10333524974203126    0.11356847176127048    
  0.14367308004158172    0.18375360543463948    0.20528183897996186    0.19723242999937637    0.18018945851351015    
  0.16615233702739407    0.1571104356530574    0.15236231224344227    0.15092090063028016    0.15236232098571523    
  0.15711048504495448    0.1661522936707062    0.18018945838400338    0.19723245051606966    0.2052818589755572    
  0.18375360865070478    0.14367310050163165    0.1135685041627201    0.10333524974203126    0.07430053818315571    
  0.08370636501327981    0.1135685043833995    0.16132914840589904    0.19916700120965375    0.19899739866144442    
  0.18045703428247686    0.1636817054117878    0.15236232886839793    0.14631334314452124    0.1443932060344292    
  0.14631332919324358    0.15236233087615542    0.16368167835529535    0.18045702013494958    0.19899741498035367    
  0.19916697411660353    0.1613291716451808    0.11356846792068831    0.08370636670701387    0.07430053818315571    
  0.06533182340597377    0.07430051776529012    0.10333524462105313    0.1523821364981534    0.19573159010151414    
  0.19937260264475226    0.1806725545293672    0.1630219223585434    0.15092089175178638    0.14439319572589962    
  0.14229968271750396    0.14439322465802362    0.1509208997662669    0.16302192696735204    0.18067255648231376    
  0.19937260458360972    0.19573156073967304    0.15238214696422314    0.1033352175900866    0.07430051316466031    
  0.06533182340597377    0.07430049961418589    0.08370636876006342    0.11356850760330246    0.16132915791881075    
  0.1991670072671033    0.19899739298556463    0.18045701716025792    0.163681713873127    0.15236230827132513    
  0.1463133263398824    0.1443932072283735    0.14631333029779262    0.15236234105697086    0.16368169176872016    
  0.18045704411993196    0.19899742321744754    0.19916698848055392    0.1613291257718414    0.11356847453450737    
  0.08370636844576156    0.07430049961418589    0.08370636710169267    0.09348474133276721    0.12382428333452378    
  0.16957494475517382    0.20180081611689663    0.19838951496278742    0.18016746856366297    0.16424532077274556    
  0.15365997016599756    0.14806549298731098    0.14631333318162487    0.14806547974868944    0.15365997226134764    
  0.1642452852313765    0.18016748303587932    0.1983895290371197    0.20180084479944113    0.16957494201929174    
  0.1238242908419556    0.09348476477142191    0.08370636710169267    0.11356848790030849    0.12382428400521359    
  0.1530982160621361    0.18947297574471478    0.2059389049367699    0.19617030687356662    0.17968752308439417    
  0.16642988513115511    0.15802156655367816    0.15365995239759025    0.15236234525303355    0.15365994922141882    
  0.15802163086531712    0.16642986680750257    0.1796875754449764    0.19617028320935495    0.2059389073071263    
  0.18947298328848247    0.15309818565197178    0.12382432738738787    0.11356848790030849    0.16132914892169886    
  0.16957491934653662    0.18947299960347658    0.20571529866595054    0.2046694837723962    0.19249764908664044    
  0.1801166696429682    0.17132412058774593    0.166429867224756    0.16424530191481204    0.16368169394504392    
  0.1642452901038068    0.16642987763624442    0.17132410279491286    0.1801166552991862    0.19249765229064514    
  0.20466950297259148    0.2057152585556704    0.18947296064702507    0.16957493354651287    0.16132914892169886    
  0.19916704281902192    0.20180086216570536    0.20593892770647865    0.20466947413834718    0.19738631271985901    
  0.18898327377554144    0.18290666519218454    0.18011667815145793    0.17968755020964056    0.1801674811230474    
  0.18045704245592403    0.18016744824076292    0.17968755818365556    0.18011663256663143    0.18290670779739596    
  0.188983235005214    0.19738635741549926    0.20466949747432528    0.2059388714179366    0.2018008449726706    
  0.19916704281902192    0.1989974238586901    0.19838952001223165    0.19617027018807623    0.19249765523422618    
  0.18898322730642206    0.18751600082371622    0.1889832378991976    0.19249765652595757    0.19617026861737077    
  0.19838951199471327    0.19899740639215707    0.19838953448298494    0.19617028278098225    0.19249764036422304    
  0.18898327713422836    0.1875160010242267    0.18898321940473872    0.19249765885527043    0.19617025790559053    
  0.19838953249910832    0.1989974238586901    0.1804570183361462    0.1801674623271374    0.17968753535268678    
  0.18011670782253994    0.18290666032927042    0.188983258531336    0.1973863522536818    0.20466947977806746    
  0.20593889917780547    0.2018008487476226    0.19916702088573204    0.2018008346095229    0.20593892390847782    
  0.2046694753058318    0.19738637286609048    0.18898326596343512    0.1829066751550341    0.18011668469748185    
  0.17968754830806016    0.18016744363892104    0.1804570183361462    0.16368172644329113    0.16424527138453032    
  0.16642988454658225    0.17132410671868042    0.1801166415788951    0.19249765801288704    0.20466947272905278    
  0.20571528984603582    0.18947296885766343    0.16957493952649774    0.16132915174325363    0.16957490870341066    
  0.1894730048419467    0.20571524020849866    0.2046694771251727    0.19249766777638622    0.18011667838522377    
  0.1713240983730448    0.1664298478353072    0.16424531306143478    0.16368172644329113    0.15236233495428778    
  0.15365994596498495    0.1580215730219431    0.16642988619931937    0.17968756861145732    0.19617027385128555    
  0.20593889902167387    0.18947300268123332    0.15309817613242535    0.12382430195666519    0.11356848636587837    
  0.1238242963247745    0.15309821435441534    0.18947298755282835    0.2059388846869492    0.19617027985546423    
  0.17968756713326975    0.1664298837113453    0.15802158279602904    0.15365997541493603    0.15236233495428778    
  0.14631338221238316    0.1480654959795416    0.15365996645393323    0.1642453101237476    0.18016745317850477    
  0.1983895348668241    0.20180083747986516    0.16957493864626907    0.12382429335398105    0.0934847525521415    
  0.08370636413638886    0.0934847536302909    0.12382429371062961    0.16957492810888858    0.20180084241651733    
  0.1983895402517178    0.1801674603619636    0.16424532502273922    0.15365996994310532    0.14806547774384052    
  0.14631338221238316    0.1443932125377063    0.1463133398220506    0.15236230281682903    0.16368172337053163    
  0.18045702719794254    0.1989974162669069    0.1991670007438312    0.1613291384644397    0.11356849334799148    
  0.08370635678058834    0.07430049810496235    0.08370636429508246    0.11356850020739347    0.16132913701397988    
  0.19916702949520015    0.19899742298628356    0.18045699722921563    0.16368169998560547    0.1523623164526604    
  0.14631335812042512    0.1443932125377063    0.1463133614662061    0.1480655077328148    0.15365996475978477    
  0.16424531254389624    0.18016743264556184    0.19838951382385572    0.20180086382546605    0.16957495571541703    
  0.1238243066279314    0.09348475099321707    0.08370636005317061    0.09348475347981583    0.12382431775622281    
  0.16957495556602856    0.20180085908669848    0.19838954709369994    0.18016747005636186    0.16424530289124814    
  0.1536599461196345    0.14806547813183701    0.1463133614662061    0.15236232183284168    0.153659964489487    
  0.15802160042298524    0.16642986593240097    0.17968753603323756    0.19617028111987703    0.20593889675713506    
  0.18947300653253626    0.15309816660819967    0.12382429900609469    0.11356848959974908    0.12382429088320666    
  0.15309821942164145    0.18947295630515223    0.2059389116214812    0.19617028400202552    0.17968756359262192    
  0.16642984696766475    0.15802156911566392    0.15365999394554258    0.15236232183284168    0.16368170923230616    
  0.16424530697472947    0.16642986419993275    0.17132413501010268    0.1801166783762857    0.19249764896004523    
  0.20466949094015613    0.2057152716016116    0.18947293503940085    0.16957493483251426    0.16132916377963616    
  0.16957494087953703    0.1894730035609627    0.20571524684756978    0.20466947135259972    0.19249762608509113    
  0.1801166561847136    0.17132412585574172    0.16642986629044174    0.16424529687417458    0.16368170923230616    
  0.1804570400283823    0.18016747649046205    0.17968755606796782    0.18011665279165878    0.1829066697921071    
  0.18898327008305119    0.19738638225407246    0.20466951879259337    0.20593891411941406    0.20180084894230987    
  0.19916701496586692    0.20180084839024492    0.20593889635290216    0.2046694776374049    0.19738635791269515    
  0.18898326197030113    0.18290669378700503    0.1801166887355049    0.17968751081197895    0.18016745758366703    
  0.1804570400283823    0.19899742825319985    0.19838952409091218    0.19617026268593396    0.19249765103455083    
  0.18898322875327844    0.1875159983735263    0.18898324065892974    0.1924976592809072    0.1961702538264983    
  0.19838952556092235    0.19899741101886073    0.19838953011439345    0.1961702941720124    0.19249764854551324    
  0.18898326675649343    0.18751598773859068    0.18898323195297215    0.1924976385893685    0.19617025650402936    
  0.19838951878053018    0.19899742825319985    0.19916700631453202    0.20180087766791416    0.20593890626564995    
  0.20466947294547416    0.19738635790811931    0.1889832315902198    0.1829066710164183    0.18011666331707918    
  0.1796875365435574    0.18016746704390302    0.1804570401289989    0.1801674460857475    0.1796875705270304    
  0.18011667425262534    0.18290667101685543    0.18898327024839154    0.1973863487260807    0.20466949184224753    
  0.20593887210169873    0.20180083748702635    0.19916700631453202    0.16132919148921512    0.1695749229937274    
  0.18947299703505854    0.2057152747281768    0.20466948784218247    0.19249767357817707    0.18011665477466682    
  0.1713241141894445    0.1664298569851935    0.16424530545624064    0.16368168971818356    0.16424529129688836    
  0.1664298890801226    0.17132409049313782    0.18011668198368405    0.19249764566445132    0.20466949926382264    
  0.2057152482393283    0.18947296926072904    0.1695749387199224    0.16132919148921512    0.11356848936334714    
  0.12382429136911592    0.1530981962936206    0.18947299314846405    0.2059388952961579    0.1961702951164053    
  0.17968754934990275    0.1664298784799377    0.1580215839813634    0.1536599493698025    0.15236232734928734    
  0.15365998900216216    0.15802160573191953    0.16642985712496872    0.1796875622108899    0.1961702804755158    
  0.20593890343511873    0.18947295804140907    0.15309819416070342    0.12382430570269984    0.11356848936334714    
  0.0837063744599378    0.09348475061723865    0.12382431382864625    0.1695749307442422    0.20180080938615025    
  0.19838953115659871    0.18016745301919707    0.16424530963559664    0.15365995963857595    0.14806548223593366    
  0.14631335875303672    0.14806545881746142    0.15365999518203324    0.16424526364216055    0.18016746246126059    
  0.19838952544613125    0.2018008258759848    0.16957494128898182    0.12382430587117679    0.09348474184071123    
  0.0837063744599378    0.07430049961418589    0.08370636876006342    0.11356850760330246    0.16132915791881075    
  0.1991670072671033    0.19899739298556463    0.18045701716025792    0.163681713873127    0.15236230827132513    
  0.1463133263398824    0.1443932072283735    0.14631333029779262    0.15236234105697086    0.16368169176872016    
  0.18045704411993196    0.19899742321744754    0.19916698848055392    0.1613291257718414    0.11356847453450737    
  0.08370636844576156    0.07430049961418589    0.10333521685391657    0.1135684840951557    0.14367312016238493    
  0.1837536397095499    0.2052818445551738    0.1972324281971426    0.1801894683410746    0.16615233588005474    
  0.15711045708231203    0.15236229313511868    0.1509208781817702    0.152362335869183    0.15711047093348743    
  0.16615232503735208    0.18018947607045283    0.19723247379893502    0.20528182524073776    0.18375361993199718    
  0.14367308889755934    0.11356850369095009    0.10333521685391657    0.11356849953307215    0.12382430573759812    
  0.15309816805558024    0.18947298383413314    0.2059388992716777    0.19617028736496891    0.1796875503338973    
  0.16642987754218597    0.15802157576821832    0.1536599793332961    0.15236231810718945    0.1536599611257344    
  0.1580216001825061    0.16642987124475989    0.17968756374021336    0.19617030759369683    0.20593889627073975    
  0.18947298783590924    0.1530981839093597    0.12382432656145337    0.11356849953307215    0.14367310150903775    
  0.15309817537281342    0.17750386963120351    0.20149685933702904    0.20553782389837263    0.19308298774293906    
  0.1786175887262964    0.167740159662339    0.16124219953052438    0.1580215782365976    0.15711047027895284    
  0.15802157531328567    0.16124224862249303    0.16774013308408403    0.17861760397810936    0.1930829786021783    
  0.20553778896549238    0.20149684133341972    0.17750382729080372    0.1530981927056638    0.14367310150903775    
  0.1837536329665874    0.1894729814792172    0.2014968432562797    0.20727894251064424    0.2007479330576896    
  0.18879292160378258    0.1781977598011432    0.1712482355184973    0.1677401608973563    0.16642984828058    
  0.16615234685905164    0.16642987851430058    0.16774017905647304    0.17124824983683493    0.17819774086461765    
  0.18879287690777458    0.200747960146078    0.20727892340277781    0.2014968428355719    0.18947296292701454    
  0.1837536329665874    0.20528187295197084    0.20593890045016822    0.2055378075790104    0.20074795275502233    
  0.19271140705448644    0.18499440567547099    0.1799844549805643    0.178197790806245    0.17861757635936432    
  0.17968758085120776    0.1801894624051437    0.17968753834166076    0.17861759391243132    0.1781977720825791    
  0.17998448014395368    0.18499440822404967    0.19271143740892127    0.2007480002958232    0.20553776387370826    
  0.20593890495369566    0.20528187295197084    0.19723244747500843    0.19617026913296753    0.1930829322121334    
  0.188792923523956    0.18499443701576634    0.1834689130702848    0.18499442208413616    0.188792903177328    
  0.19308295053945185    0.19617025584139888    0.19723242878886446    0.19617029098935512    0.19308297883392286    
  0.18879287192050254    0.18499442945156616    0.18346892152692126    0.18499438438659033    0.18879289194848214    
  0.19308293794171422    0.19617029813163672    0.19723244747500843    0.1801894618285086    0.179687568105317    
  0.17861760997821374    0.17819777118768304    0.17998446297257656    0.18499442180166803    0.19271143352530892    
  0.20074795485440325    0.20553776257192263    0.2059389030118792    0.20528186304759785    0.2059388826863875    
  0.20553780196225763    0.20074795344694926    0.19271145964108471    0.18499440808777895    0.17998446778818905    
  0.17819777234032694    0.1786175780885994    0.17968753217573413    0.1801894618285086    0.16615234632040968    
  0.16642985096156632    0.16774015162467068    0.17124825026621293    0.178197747271772    0.1887929162779003    
  0.2007479547437543    0.20727897923131414    0.20149682532094856    0.1894729715233055    0.18375364546161457    
  0.18947297435331345    0.20149685263536649    0.20727894121077478    0.20074795515161242    0.1887928882015878    
  0.1781977669787161    0.17124823339661838    0.16774013806703617    0.16642986293531373    0.16615234632040968    
  0.15711049348853945    0.1580215434512659    0.16124224774496945    0.16774013596453088    0.1786176313101331    
  0.19308297141070765    0.2055378006472367    0.2014968415241231    0.1775038337873965    0.15309819736721872    
  0.1436731160555018    0.15309819088172605    0.17750386062607396    0.20149685570521297    0.20553781514240257    
  0.19308300319633692    0.1786175948539721    0.16774015900033742    0.16124223158487833    0.15802158211756429    
  0.15711049348853945    0.15236232892650695    0.15365999111511608    0.15802157436265302    0.16642985055378315    
  0.1796875301578577    0.1961702591397487    0.20593890088198866    0.18947299584967658    0.15309818708718909    
  0.12382429540825353    0.11356848549249852    0.12382429956204188    0.1530981914132924    0.18947297986569264    
  0.20593890104041293    0.19617025650391612    0.17968751668416535    0.16642987101762016    0.1580215749003991    
  0.15365997090570777    0.15236232892650695    0.1509208734205033    0.15236230693437286    0.15711046317404823    
  0.1661523272936281    0.1801894615908737    0.19723244993313255    0.20528184225770507    0.18375362951848206    
  0.14367308747598995    0.11356849522519331    0.10333522287962363    0.11356849405268202    0.14367312114222858    
  0.1837536069509873    0.20528185977831379    0.19723246038054879    0.18018943775880764    0.16615233527121817    
  0.1571104382737179    0.15236231400002617    0.1509208734205033    0.1523623299628599    0.15365998294582678    
  0.15802159414748343    0.16642987597215816    0.17968752786410316    0.1961702738696338    0.20593890418390207    
  0.18947299429195225    0.15309819173703423    0.1238243189017364    0.1135684878591117    0.12382429917180089    
  0.15309819526417331    0.1894729596165694    0.2059388961852031    0.19617030447199868    0.17968754404619325    
  0.16642986845730426    0.15802156890056376    0.15365999020875398    0.1523623299628599    0.15711047035483447    
  0.15802155287551845    0.1612422584792145    0.16774014611869997    0.17861759680508746    0.1930829706852359    
  0.20553780565442775    0.20149687236326297    0.17750383455033647    0.1530981848549743    0.14367311364427132    
  0.15309819372962605    0.17750387371377174    0.20149684551226993    0.20553780003009461    0.193082951614194    
  0.17861760221547532    0.16774014666971093    0.1612422240713714    0.15802159390131762    0.15711047035483447    
  0.16615232094921176    0.1664298624726157    0.1677401596190499    0.17124824603418015    0.17819775338617855    
  0.18879288856725082    0.20074795586131428    0.2072789608198644    0.20149682562818516    0.1894729570346654    
  0.18375362788221505    0.18947297885301026    0.20149686418657203    0.20727892472206966    0.20074796552421545    
  0.18879287075079626    0.17819776736564485    0.17124826813355593    0.16774013786627817    0.16642987579465157    
  0.16615232094921176    0.18018947194112497    0.1796875227462475    0.1786176093662494    0.17819774893408985    
  0.17998444077309253    0.1849944179353152    0.19271142464459642    0.20074797705741057    0.20553780694854717    
  0.20593889879147392    0.20528182819555985    0.20593888401125118    0.20553778199988026    0.20074796250389423    
  0.19271145109961965    0.18499442186709902    0.1799844548987994    0.17819778130609645    0.17861757868327338    
  0.1796875039584269    0.18018947194112497    0.1972324445252789    0.19617030327514995    0.19308293061236578    
  0.18879288194296462    0.18499441717407283    0.18346889890666115    0.18499438721585956    0.18879289746478406    
  0.19308293402095994    0.1961702823535484    0.19723244006012808    0.1961702601146189    0.19308300255843247    
  0.18879288156203597    0.1849944185598122    0.18346890508409372    0.18499439962032097    0.18879291938164305    
  0.19308293334845167    0.19617028540631182    0.1972324445252789    0.20528186245138955    0.20593889586933042    
  0.2055378106107771    0.20074795828408976    0.1927114291982224    0.18499442424425747    0.17998444939039407    
  0.17819776012038105    0.17861757591182015    0.17968754715505209    0.18018948645649505    0.17968752451019737    
  0.17861762409969612    0.17819775935302085    0.17998446332024698    0.18499440959038554    0.1927114143199552    
  0.2007479812286516    0.2055377511010136    0.2059389014989684    0.20528186245138955    0.18375365059289195    
  0.1894729384917911    0.2014968474013351    0.2072789616812343    0.2007479615257123    0.18879290665388795    
  0.17819772863298966    0.1712482364995498    0.167740140054256    0.16642984380296455    0.16615233262214277    
  0.16642986085597233    0.1677401817940834    0.17124820776767    0.17819776334773607    0.1887928971718099    
  0.2007479860489131    0.20727893649051982    0.2014968347596515    0.1894729596137839    0.18375365059289195    
  0.1436731229269093    0.15309817564557948    0.17750383606722417    0.20149688247238695    0.20553781898301957    