<?xml version="1.0"?>
<VTKFile type="UnstructuredGrid"  version="0.1"  >
<UnstructuredGrid>
<Piece  NumberOfPoints="5101" NumberOfCells="10000">
<Points>
<DataArray  type="Float64"  NumberOfComponents="3"  format="ascii">0 0 0  0.2 0 0  0.4 0 0  0.6 0 0  0.8 0 0  1 0 0  1.2 0 0  1.4 0 0  1.6 0 0  1.8 0 0  2 0 0  2.2 0 0  2.4 0 0  2.6 0 0  2.8 0 0  3 0 0  3.2 0 0  3.4 0 0  3.6 0 0  3.8 0 0  4 0 0  4.2 0 0  4.4 0 0  4.6 0 0  4.8 0 0  5 0 0  5.2 0 0  5.4 0 0  5.6 0 0  5.8 0 0  6 0 0  6.2 0 0  6.4 0 0  6.6 0 0  6.8 0 0  7 0 0  7.2 0 0  7.4 0 0  7.6 0 0  7.8 0 0  8 0 0  8.199999999999999 0 0  8.4 0 0  8.6 0 0  8.800000000000001 0 0  9 0 0  9.199999999999999 0 0  9.4 0 0  9.6 0 0  9.800000000000001 0 0  10 0 0  0 0.2 0  0.2 0.2 0  0.4 0.2 0  0.6 0.2 0  0.8 0.2 0  1 0.2 0  1.2 0.2 0  1.4 0.2 0  1.6 0.2 0  1.8 0.2 0  2 0.2 0  2.2 0.2 0  2.4 0.2 0  2.6 0.2 0  2.8 0.2 0  3 0.2 0  3.2 0.2 0  3.4 0.2 0  3.6 0.2 0  3.8 0.2 0  4 0.2 0  4.2 0.2 0  4.4 0.2 0  4.6 0.2 0  4.8 0.2 0  5 0.2 0  5.2 0.2 0  5.4 0.2 0  5.6 0.2 0  5.8 0.2 0  6 0.2 0  6.2 0.2 0  6.4 0.2 0  6.6 0.2 0  6.8 0.2 0  7 0.2 0  7.2 0.2 0  7.4 0.2 0  7.6 0.2 0  7.8 0.2 0  8 0.2 0  8.199999999999999 0.2 0  8.4 0.2 0  8.6 0.2 0  8.800000000000001 0.2 0  9 0.2 0  9.199999999999999 0.2 0  9.4 0.2 0  9.6 0.2 0  9.800000000000001 0.2 0  10 0.2 0  0 0.4 0  0.2 0.4 0  0.4 0.4 0  0.6 0.4 0  0.8 0.4 0  1 0.4 0  1.2 0.4 0  1.4 0.4 0  1.6 0.4 0  1.8 0.4 0  2 0.4 0  2.2 0.4 0  2.4 0.4 0  2.6 0.4 0  2.8 0.4 0  3 0.4 0  3.2 0.4 0  3.4 0.4 0  3.6 0.4 0  3.8 0.4 0  4 0.4 0  4.2 0.4 0  4.4 0.4 0  4.6 0.4 0  4.8 0.4 0  5 0.4 0  5.2 0.4 0  5.4 0.4 0  5.6 0.4 0  5.8 0.4 0  6 0.4 0  6.2 0.4 0  6.4 0.4 0  6.6 0.4 0  6.8 0.4 0  7 0.4 0  7.2 0.4 0  7.4 0.4 0  7.6 0.4 0  7.8 0.4 0  8 0.4 0  8.199999999999999 0.4 0  8.4 0.4 0  8.6 0.4 0  8.800000000000001 0.4 0  9 0.4 0  9.199999999999999 0.4 0  9.4 0.4 0  9.6 0.4 0  9.800000000000001 0.4 0  10 0.4 0  0 0.6 0  0.2 0.6 0  0.4 0.6 0  0.6 0.6 0  0.8 0.6 0  1 0.6 0  1.2 0.6 0  1.4 0.6 0  1.6 0.6 0  1.8 0.6 0  2 0.6 0  2.2 0.6 0  2.4 0.6 0  2.6 0.6 0  2.8 0.6 0  3 0.6 0  3.2 0.6 0  3.4 0.6 0  3.6 0.6 0  3.8 0.6 0  4 0.6 0  4.2 0.6 0  4.4 0.6 0  4.6 0.6 0  4.8 0.6 0  5 0.6 0  5.2 0.6 0  5.4 0.6 0  5.6 0.6 0  5.8 0.6 0  6 0.6 0  6.2 0.6 0  6.4 0.6 0  6.6 0.6 0  6.8 0.6 0  7 0.6 0  7.2 0.6 0  7.4 0.6 0  7.6 0.6 0  7.8 0.6 0  8 0.6 0  8.199999999999999 0.6 0  8.4 0.6 0  8.6 0.6 0  8.800000000000001 0.6 0  9 0.6 0  9.199999999999999 0.6 0  9.4 0.6 0  9.6 0.6 0  9.800000000000001 0.6 0  10 0.6 0  0 0.8 0  0.2 0.8 0  0.4 0.8 0  0.6 0.8 0  0.8 0.8 0  1 0.8 0  1.2 0.8 0  1.4 0.8 0  1.6 0.8 0  1.8 0.8 0  2 0.8 0  2.2 0.8 0  2.4 0.8 0  2.6 0.8 0  2.8 0.8 0  3 0.8 0  3.2 0.8 0  3.4 0.8 0  3.6 0.8 0  3.8 0.8 0  4 0.8 0  4.2 0.8 0  4.4 0.8 0  4.6 0.8 0  4.8 0.8 0  5 0.8 0  5.2 0.8 0  5.4 0.8 0  5.6 0.8 0  5.8 0.8 0  6 0.8 0  6.2 0.8 0  6.4 0.8 0  6.6 0.8 0  6.8 0.8 0  7 0.8 0  7.2 0.8 0  7.4 0.8 0  7.6 0.8 0  7.8 0.8 0  8 0.8 0  8.199999999999999 0.8 0  8.4 0.8 0  8.6 0.8 0  8.800000000000001 0.8 0  9 0.8 0  9.199999999999999 0.8 0  9.4 0.8 0  9.6 0.8 0  9.800000000000001 0.8 0  10 0.8 0  0 1 0  0.2 1 0  0.4 1 0  0.6 1 0  0.8 1 0  1 1 0  1.2 1 0  1.4 1 0  1.6 1 0  1.8 1 0  2 1 0  2.2 1 0  2.4 1 0  2.6 1 0  2.8 1 0  3 1 0  3.2 1 0  3.4 1 0  3.6 1 0  3.8 1 0  4 1 0  4.2 1 0  4.4 1 0  4.6 1 0  4.8 1 0  5 1 0  5.2 1 0  5.4 1 0  5.6 1 0  5.8 1 0  6 1 0  6.2 1 0  6.4 1 0  6.6 1 0  6.8 1 0  7 1 0  7.2 1 0  7.4 1 0  7.6 1 0  7.8 1 0  8 1 0  8.199999999999999 1 0  8.4 1 0  8.6 1 0  8.800000000000001 1 0  9 1 0  9.199999999999999 1 0  9.4 1 0  9.6 1 0  9.800000000000001 1 0  10 1 0  0 1.2 0  0.2 1.2 0  0.4 1.2 0  0.6 1.2 0  0.8 1.2 0  1 1.2 0  1.2 1.2 0  1.4 1.2 0  1.6 1.2 0  1.8 1.2 0  2 1.2 0  2.2 1.2 0  2.4 1.2 0  2.6 1.2 0  2.8 1.2 0  3 1.2 0  3.2 1.2 0  3.4 1.2 0  3.6 1.2 0  3.8 1.2 0  4 1.2 0  4.2 1.2 0  4.4 1.2 0  4.6 1.2 0  4.8 1.2 0  5 1.2 0  5.2 1.2 0  5.4 1.2 0  5.6 1.2 0  5.8 1.2 0  6 1.2 0  6.2 1.2 0  6.4 1.2 0  6.6 1.2 0  6.8 1.2 0  7 1.2 0  7.2 1.2 0  7.4 1.2 0  7.6 1.2 0  7.8 1.2 0  8 1.2 0  8.199999999999999 1.2 0  8.4 1.2 0  8.6 1.2 0  8.800000000000001 1.2 0  9 1.2 0  9.199999999999999 1.2 0  9.4 1.2 0  9.6 1.2 0  9.800000000000001 1.2 0  10 1.2 0  0 1.4 0  0.2 1.4 0  0.4 1.4 0  0.6 1.4 0  0.8 1.4 0  1 1.4 0  1.2 1.4 0  1.4 1.4 0  1.6 1.4 0  1.8 1.4 0  2 1.4 0  2.2 1.4 0  2.4 1.4 0  2.6 1.4 0  2.8 1.4 0  3 1.4 0  3.2 1.4 0  3.4 1.4 0  3.6 1.4 0  3.8 1.4 0  4 1.4 0  4.2 1.4 0  4.4 1.4 0  4.6 1.4 0  4.8 1.4 0  5 1.4 0  5.2 1.4 0  5.4 1.4 0  5.6 1.4 0  5.8 1.4 0  6 1.4 0  6.2 1.4 0  6.4 1.4 0  6.6 1.4 0  6.8 1.4 0  7 1.4 0  7.2 1.4 0  7.4 1.4 0  7.6 1.4 0  7.8 1.4 0  8 1.4 0  8.199999999999999 1.4 0  8.4 1.4 0  8.6 1.4 0  8.800000000000001 1.4 0  9 1.4 0  9.199999999999999 1.4 0  9.4 1.4 0  9.6 1.4 0  9.800000000000001 1.4 0  10 1.4 0  0 1.6 0  0.2 1.6 0  0.4 1.6 0  0.6 1.6 0  0.8 1.6 0  1 1.6 0  1.2 1.6 0  1.4 1.6 0  1.6 1.6 0  1.8 1.6 0  2 1.6 0  2.2 1.6 0  2.4 1.6 0  2.6 1.6 0  2.8 1.6 0  3 1.6 0  3.2 1.6 0  3.4 1.6 0  3.6 1.6 0  3.8 1.6 0  4 1.6 0  4.2 1.6 0  4.4 1.6 0  4.6 1.6 0  4.8 1.6 0  5 1.6 0  5.2 1.6 0  5.4 1.6 0  5.6 1.6 0  5.8 1.6 0  6 1.6 0  6.2 1.6 0  6.4 1.6 0  6.6 1.6 0  6.8 1.6 0  7 1.6 0  7.2 1.6 0  7.4 1.6 0  7.6 1.6 0  7.8 1.6 0  8 1.6 0  8.199999999999999 1.6 0  8.4 1.6 0  8.6 1.6 0  8.800000000000001 1.6 0  9 1.6 0  9.199999999999999 1.6 0  9.4 1.6 0  9.6 1.6 0  9.800000000000001 1.6 0  10 1.6 0  0 1.8 0  0.2 1.8 0  0.4 1.8 0  0.6 1.8 0  0.8 1.8 0  1 1.8 0  1.2 1.8 0  1.4 1.8 0  1.6 1.8 0  1.8 1.8 0  2 1.8 0  2.2 1.8 0  2.4 1.8 0  2.6 1.8 0  2.8 1.8 0  3 1.8 0  3.2 1.8 0  3.4 1.8 0  3.6 1.8 0  3.8 1.8 0  4 1.8 0  4.2 1.8 0  4.4 1.8 0  4.6 1.8 0  4.8 1.8 0  5 1.8 0  5.2 1.8 0  5.4 1.8 0  5.6 1.8 0  5.8 1.8 0  6 1.8 0  6.2 1.8 0  6.4 1.8 0  6.6 1.8 0  6.8 1.8 0  7 1.8 0  7.2 1.8 0  7.4 1.8 0  7.6 1.8 0  7.8 1.8 0  8 1.8 0  8.199999999999999 1.8 0  8.4 1.8 0  8.6 1.8 0  8.800000000000001 1.8 0  9 1.8 0  9.199999999999999 1.8 0  9.4 1.8 0  9.6 1.8 0  9.800000000000001 1.8 0  10 1.8 0  0 2 0  0.2 2 0  0.4 2 0  0.6 2 0  0.8 2 0  1 2 0  1.2 2 0  1.4 2 0  1.6 2 0  1.8 2 0  2 2 0  2.2 2 0  2.4 2 0  2.6 2 0  2.8 2 0  3 2 0  3.2 2 0  3.4 2 0  3.6 2 0  3.8 2 0  4 2 0  4.2 2 0  4.4 2 0  4.6 2 0  4.8 2 0  5 2 0  5.2 2 0  5.4 2 0  5.6 2 0  5.8 2 0  6 2 0  6.2 2 0  6.4 2 0  6.6 2 0  6.8 2 0  7 2 0  7.2 2 0  7.4 2 0  7.6 2 0  7.8 2 0  8 2 0  8.199999999999999 2 0  8.4 2 0  8.6 2 0  8.800000000000001 2 0  9 2 0  9.199999999999999 2 0  9.4 2 0  9.6 2 0  9.800000000000001 2 0  10 2 0  0 2.2 0  0.2 2.2 0  0.4 2.2 0  0.6 2.2 0  0.8 2.2 0  1 2.2 0  1.2 2.2 0  1.4 2.2 0  1.6 2.2 0  1.8 2.2 0  2 2.2 0  2.2 2.2 0  2.4 2.2 0  2.6 2.2 0  2.8 2.2 0  3 2.2 0  3.2 2.2 0  3.4 2.2 0  3.6 2.2 0  3.8 2.2 0  4 2.2 0  4.2 2.2 0  4.4 2.2 0  4.6 2.2 0  4.8 2.2 0  5 2.2 0  5.2 2.2 0  5.4 2.2 0  5.6 2.2 0  5.8 2.2 0  6 2.2 0  6.2 2.2 0  6.4 2.2 0  6.6 2.2 0  6.8 2.2 0  7 2.2 0  7.2 2.2 0  7.4 2.2 0  7.6 2.2 0  7.8 2.2 0  8 2.2 0  8.199999999999999 2.2 0  8.4 2.2 0  8.6 2.2 0  8.800000000000001 2.2 0  9 2.2 0  9.199999999999999 2.2 0  9.4 2.2 0  9.6 2.2 0  9.800000000000001 2.2 0  10 2.2 0  0 2.4 0  0.2 2.4 0  0.4 2.4 0  0.6 2.4 0  0.8 2.4 0  1 2.4 0  1.2 2.4 0  1.4 2.4 0  1.6 2.4 0  1.8 2.4 0  2 2.4 0  2.2 2.4 0  2.4 2.4 0  2.6 2.4 0  2.8 2.4 0  3 2.4 0  3.2 2.4 0  3.4 2.4 0  3.6 2.4 0  3.8 2.4 0  4 2.4 0  4.2 2.4 0  4.4 2.4 0  4.6 2.4 0  4.8 2.4 0  5 2.4 0  5.2 2.4 0  5.4 2.4 0  5.6 2.4 0  5.8 2.4 0  6 2.4 0  6.2 2.4 0  6.4 2.4 0  6.6 2.4 0  6.8 2.4 0  7 2.4 0  7.2 2.4 0  7.4 2.4 0  7.6 2.4 0  7.8 2.4 0  8 2.4 0  8.199999999999999 2.4 0  8.4 2.4 0  8.6 2.4 0  8.800000000000001 2.4 0  9 2.4 0  9.199999999999999 2.4 0  9.4 2.4 0  9.6 2.4 0  9.800000000000001 2.4 0  10 2.4 0  0 2.6 0  0.2 2.6 0  0.4 2.6 0  0.6 2.6 0  0.8 2.6 0  1 2.6 0  1.2 2.6 0  1.4 2.6 0  1.6 2.6 0  1.8 2.6 0  2 2.6 0  2.2 2.6 0  2.4 2.6 0  2.6 2.6 0  2.8 2.6 0  3 2.6 0  3.2 2.6 0  3.4 2.6 0  3.6 2.6 0  3.8 2.6 0  4 2.6 0  4.2 2.6 0  4.4 2.6 0  4.6 2.6 0  4.8 2.6 0  5 2.6 0  5.2 2.6 0  5.4 2.6 0  5.6 2.6 0  5.8 2.6 0  6 2.6 0  6.2 2.6 0  6.4 2.6 0  6.6 2.6 0  6.8 2.6 0  7 2.6 0  7.2 2.6 0  7.4 2.6 0  7.6 2.6 0  7.8 2.6 0  8 2.6 0  8.199999999999999 2.6 0  8.4 2.6 0  8.6 2.6 0  8.800000000000001 2.6 0  9 2.6 0  9.199999999999999 2.6 0  9.4 2.6 0  9.6 2.6 0  9.800000000000001 2.6 0  10 2.6 0  0 2.8 0  0.2 2.8 0  0.4 2.8 0  0.6 2.8 0  0.8 2.8 0  1 2.8 0  1.2 2.8 0  1.4 2.8 0  1.6 2.8 0  1.8 2.8 0  2 2.8 0  2.2 2.8 0  2.4 2.8 0  2.6 2.8 0  2.8 2.8 0  3 2.8 0  3.2 2.8 0  3.4 2.8 0  3.6 2.8 0  3.8 2.8 0  4 2.8 0  4.2 2.8 0  4.4 2.8 0  4.6 2.8 0  4.8 2.8 0  5 2.8 0  5.2 2.8 0  5.4 2.8 0  5.6 2.8 0  5.8 2.8 0  6 2.8 0  6.2 2.8 0  6.4 2.8 0  6.6 2.8 0  6.8 2.8 0  7 2.8 0  7.2 2.8 0  7.4 2.8 0  7.6 2.8 0  7.8 2.8 0  8 2.8 0  8.199999999999999 2.8 0  8.4 2.8 0  8.6 2.8 0  8.800000000000001 2.8 0  9 2.8 0  9.199999999999999 2.8 0  9.4 2.8 0  9.6 2.8 0  9.800000000000001 2.8 0  10 2.8 0  0 3 0  0.2 3 0  0.4 3 0  0.6 3 0  0.8 3 0  1 3 0  1.2 3 0  1.4 3 0  1.6 3 0  1.8 3 0  2 3 0  2.2 3 0  2.4 3 0  2.6 3 0  2.8 3 0  3 3 0  3.2 3 0  3.4 3 0  3.6 3 0  3.8 3 0  4 3 0  4.2 3 0  4.4 3 0  4.6 3 0  4.8 3 0  5 3 0  5.2 3 0  5.4 3 0  5.6 3 0  5.8 3 0  6 3 0  6.2 3 0  6.4 3 0  6.6 3 0  6.8 3 0  7 3 0  7.2 3 0  7.4 3 0  7.6 3 0  7.8 3 0  8 3 0  8.199999999999999 3 0  8.4 3 0  8.6 3 0  8.800000000000001 3 0  9 3 0  9.199999999999999 3 0  9.4 3 0  9.6 3 0  9.800000000000001 3 0  10 3 0  0 3.2 0  0.2 3.2 0  0.4 3.2 0  0.6 3.2 0  0.8 3.2 0  1 3.2 0  1.2 3.2 0  1.4 3.2 0  1.6 3.2 0  1.8 3.2 0  2 3.2 0  2.2 3.2 0  2.4 3.2 0  2.6 3.2 0  2.8 3.2 0  3 3.2 0  3.2 3.2 0  3.4 3.2 0  3.6 3.2 0  3.8 3.2 0  4 3.2 0  4.2 3.2 0  4.4 3.2 0  4.6 3.2 0  4.8 3.2 0  5 3.2 0  5.2 3.2 0  5.4 3.2 0  5.6 3.2 0  5.8 3.2 0  6 3.2 0  6.2 3.2 0  6.4 3.2 0  6.6 3.2 0  6.8 3.2 0  7 3.2 0  7.2 3.2 0  7.4 3.2 0  7.6 3.2 0  7.8 3.2 0  8 3.2 0  8.199999999999999 3.2 0  8.4 3.2 0  8.6 3.2 0  8.800000000000001 3.2 0  9 3.2 0  9.199999999999999 3.2 0  9.4 3.2 0  9.6 3.2 0  9.800000000000001 3.2 0  10 3.2 0  0 3.4 0  0.2 3.4 0  0.4 3.4 0  0.6 3.4 0  0.8 3.4 0  1 
[...]
<PointData  Scalars="f_6"> 
<DataArray  type="Float64"  Name="f_6"  format="ascii">5.7560959921428116e-03  4.6091138384425072e-02  6.8584748153670230e-02  8.3702788042501849e-02  9.4604364626920720e-02  1.0268069582126410e-01  1.0878159013245822e-01  1.1344669081003372e-01  1.1704732746318100e-01  1.1984566711884349e-01  1.2203235522071361e-01  1.2374841372364630e-01  1.2509968600415261e-01  1.2616646176686572e-01  1.2701016276900789e-01  1.2767808057541458e-01  1.2820680123085862e-01  1.2862471652759730e-01  1.2895388638960903e-01  1.2921143115924530e-01  1.2941057730057892e-01  1.2956144320805843e-01  1.2967162661269005e-01  1.2974663737960168e-01  1.2979020670504540e-01  1.2980449417054990e-01  1.2979020670337515e-01  1.2974663737936729e-01  1.2967162661280313e-01  1.2956144320846827e-01  1.2941057730116676e-01  1.2921143115993422e-01  1.2895388639037808e-01  1.2862471652840107e-01  1.2820680123166481e-01  1.2767808057623320e-01  1.2701016276982743e-01  1.2616646176767793e-01  1.2509968600495913e-01  1.2374841372439026e-01  1.2203235522147128e-01  1.1984566711961113e-01  1.1704732746395718e-01  1.1344669081082429e-01  1.0878159013326574e-01  1.0268069582207968e-01  9.4604364627688578e-02  8.3702788043229281e-02  6.8584748154332908e-02  4.6091138384779219e-02  5.7560959922807135e-03  2.8062486329024001e-03  2.9114015458830172e-02  4.7658546225442668e-02  6.1778060088286554e-02  7.2044467915673080e-02  7.9814168516924855e-02  8.5714925112944554e-02  9.0256062767610404e-02  9.3772939626498492e-02  9.6514155257298173e-02  9.8660698256439402e-02  1.0034812073897145e-01  1.0167865734869559e-01  1.0273024940475856e-01  1.0356272778604476e-01  1.0422228905011897e-01  1.0474475200241945e-01  1.0515796360553499e-01  1.0548359275537793e-01  1.0573847703460944e-01  1.0593563768197492e-01  1.0608504439451512e-01  1.0619418828166284e-01  1.0626850474243485e-01  1.0631167597501517e-01  1.0632583374805446e-01  1.0631167597350069e-01  1.0626850474222810e-01  1.0619418828176233e-01  1.0608504439493437e-01  1.0593563768256413e-01  1.0573847703530316e-01  1.0548359275614795e-01  1.0515796360634286e-01  1.0474475200323999e-01  1.0422228905095243e-01  1.0356272778688080e-01  1.0273024940557987e-01  1.0167865734950904e-01  1.0034812073972771e-01  9.8660698257214435e-02  9.6514155258070763e-02  9.3772939627277258e-02  9.0256062768396386e-02  8.5714925113744914e-02  7.9814168517734443e-02  7.2044467916450528e-02  6.1778060089000358e-02  4.7658546226208957e-02  2.9114015459071243e-02  2.8062486329130435e-03  1.5128493552247894e-03  1.9688232505815934e-02  3.4143324961188715e-02  4.5819051608537789e-02  5.4893985825024243e-02  6.1914609772055818e-02  6.7368269292511565e-02  7.1614001523957721e-02  7.4934778156550155e-02  7.7540689059190898e-02  7.9592419164645128e-02  8.1212152968882276e-02  8.2493731187164979e-02  8.3509503113350148e-02  8.4315529767394551e-02  8.4955408981590416e-02  8.5463140881301719e-02  8.5865282772910681e-02  8.6182579533515588e-02  8.6431201786704812e-02  8.6623687564638605e-02  8.6769657041251461e-02  8.6876351078442327e-02  8.6949030517167972e-02  8.6991262809443623e-02  8.7005114632977998e-02  8.6991262807944045e-02  8.6949030516956530e-02  8.6876351078550268e-02  8.6769657041663478e-02  8.6623687565226232e-02  8.6431201787404544e-02  8.6182579534285056e-02  8.5865282773724808e-02  8.5463140882136815e-02  8.4955408982435657e-02  8.4315529768243483e-02  8.3509503114197303e-02  8.2493731187986280e-02  8.1212152969671991e-02  7.9592419165442588e-02  7.7540689059981058e-02  7.4934778157336804e-02  7.1614001524754015e-02  6.7368269293323499e-02  6.1914609772876966e-02  5.4893985825838362e-02  4.5819051609396026e-02  3.4143324961465521e-02  1.9688232505671924e-02  1.5128493555709702e-03  1.1286112513687111e-03  1.4024407863342612e-02  2.4951200587743829e-02  3.4337398916128928e-02  4.1940882758746412e-02  4.8045205896367113e-02  5.2893196868594110e-02  5.6737849633988743e-02  5.9783591747915019e-02  6.2198422517696500e-02  6.4114863008792516e-02  6.5637578308074471e-02  6.6848741304695494e-02  6.7812903947939901e-02  6.8580788129227702e-02  6.9192284156278011e-02  6.9678781726214195e-02  7.0064979471070654e-02  7.0370286895332118e-02  7.0609909060384696e-02  7.0795683754197633e-02  7.0936724396936865e-02  7.1039908990102638e-02  7.1110245289840071e-02  7.1151134414162834e-02  7.1164548703432487e-02  7.1151134412627631e-02  7.1110245289619123e-02  7.1039908990192191e-02  7.0936724397337725e-02  7.0795683754784289e-02  7.0609909061096376e-02  7.0370286896113243e-02  7.0064979471888306e-02  6.9678781727057104e-02  6.9192284157143499e-02  6.8580788130105277e-02  6.7812903948812314e-02  6.6848741305541734e-02  6.5637578308903599e-02  6.4114863009614498e-02  6.2198422518515317e-02  5.9783591748742856e-02  5.6737849634816061e-02  5.2893196869443708e-02  4.8045205897246826e-02  4.1940882759727321e-02  3.4337398916460517e-02  2.4951200587535392e-02  1.4024407863343040e-02  1.1286112516712087e-03  8.0414391029859811e-04  1.0312482490034835e-02  1.8600802045237643e-02  2.5984008538611988e-02  3.2206604485016561e-02  3.7349671198771840e-02  4.1540283633612819e-02  4.4926803737680279e-02  4.7651554130680708e-02  4.9838226417242337e-02  5.1590895527010253e-02  5.2994813557554962e-02  5.4119038837755540e-02  5.5019071982790643e-02  5.5739327931652628e-02  5.6315248484089281e-02  5.6775054072231934e-02  5.7141165545735333e-02  5.7431343759923925e-02  5.7659594682059549e-02  5.7836882453673383e-02  5.7971685951602847e-02  5.8070427536874150e-02  5.8137796499173278e-02  5.8176984337059832e-02  5.8189844389073750e-02  5.8176984335478209e-02  5.8137796498903438e-02  5.8070427536934609e-02  5.7971685951995235e-02  5.7836882454257846e-02  5.7659594682771827e-02  5.7431343760719060e-02  5.7141165546563094e-02  5.6775054073094508e-02  5.6315248484967308e-02  5.5739327932562720e-02  5.5019071983698792e-02  5.4119038838639076e-02  5.2994813558427341e-02  5.1590895527882714e-02  4.9838226418101615e-02  4.7651554131546578e-02  4.4926803738583418e-02  4.1540283634538003e-02  3.7349671199864418e-02  3.2206604485357532e-02  2.5984008538370677e-02  1.8600802045242996e-02  1.0312482490018395e-02  8.0414391060357551e-04  6.0563742301579591e-04  7.7296179513194514e-03  1.4057889569610727e-02  1.9844680891631609e-02  2.4856288825785087e-02  2.9111010793819173e-02  3.2655858589123926e-02  3.5576472387955749e-02  3.7963748598493482e-02  3.9905129824950251e-02  4.1478392679002524e-02  4.2750309100291567e-02  4.3776820038531367e-02  4.4604112948617609e-02  4.5269944979355166e-02  4.5804969265431546e-02  4.6233939880658208e-02  4.6576754026331220e-02  4.6849326636650118e-02  4.7064309506026934e-02  4.7231673188236130e-02  4.7359170782293271e-02  4.7452701124703692e-02  4.7516586302303709e-02  4.7553775491046377e-02  4.7565984228648495e-02  4.7553775489389376e-02  4.7516586301971281e-02  4.7452701124720581e-02  4.7359170782668034e-02  4.7231673188812169e-02  4.7064309506730441e-02  4.6849326637450429e-02  4.6576754027172158e-02  4.6233939881543423e-02  4.5804969266346765e-02  4.5269944980293395e-02  4.4604112949556560e-02  4.3776820039460512e-02  4.2750309101221455e-02  4.1478392679933938e-02  3.9905129825896876e-02  3.7963748599437241e-02  3.5576472388970964e-02  3.2655858590334964e-02  2.9111010794153302e-02  2.4856288825467636e-02  1.9844680891622599e-02  1.4057889569628322e-02  7.7296179513273245e-03  6.0563742330420941e-04  4.5709342670772118e-04  5.8744570293497748e-03  1.0740540148949894e-02  1.5269936329398775e-02  1.9278559499602308e-02  2.2754054001276901e-02  2.5708573930770598e-02  2.8186186712501008e-02  3.0243062271759456e-02  3.1938208851192564e-02  3.3327787883047008e-02  3.4462336870319007e-02  3.5385801503047418e-02  3.6135537798858502e-02  3.6742810651893824e-02  3.7233494738231912e-02  3.7628819388321418e-02  3.7946075420797018e-02  3.8199246580159968e-02  3.8399552671730411e-02  3.8555904192241933e-02  3.8675274233568445e-02  3.8762995658672306e-02  3.8822991736594516e-02  3.8857947554498444e-02  3.8869428130892926e-02  3.8857947552759078e-02  3.8822991736184413e-02  3.8762995658638139e-02  3.8675274233910976e-02  3.8555904192797127e-02  3.8399552672428755e-02  3.8199246580959391e-02  3.7946075421655283e-02  3.7628819389230198e-02  3.7233494739182235e-02  3.6742810652860440e-02  3.6135537799833008e-02  3.5385801504030708e-02  3.4462336871324634e-02  3.3327787884080501e-02  3.1938208852264387e-02  3.0243062272843665e-02  2.8186186713856271e-02  2.5708573931105171e-02  2.2754054000865456e-02  1.9278559499561112e-02  1.5269936329424003e-02  1.0740540149015869e-02  5.8744570293497245e-03  4.5709342698444086e-04  3.5028289028833171e-04  4.5083773579117081e-03  8.2736719344956040e-03  1.1824479469706283e-02  1.5018297665565086e-02  1.7836047930862381e-02  2.0272486235015558e-02  2.2348602780491167e-02  2.4097304087747275e-02  2.5557248763574115e-02  2.6767785979977178e-02  2.7766149742166985e-02  2.8585982648736949e-02  2.9256772787085533e-02  2.9803822286187460e-02  3.0248505679771748e-02  3.0608662804825503e-02  3.0899033930659646e-02  3.1131685054668679e-02  3.1316396326883246e-02  3.1461001456685171e-02  3.1571674404768699e-02  3.1653164124003444e-02  3.1708980155608815e-02  3.1741532500599641e-02  3.1752228963067820e-02  3.1741532498765948e-02  3.1708980155109610e-02  3.1653164123897154e-02  3.1571674405056406e-02  3.1461001457213554e-02  3.1316396327572826e-02  3.1131685055466835e-02  3.0899033931545118e-02  3.0608662805764884e-02  3.0248505680754170e-02  2.9803822287189211e-02  2.9256772788130180e-02  2.8585982649810125e-02  2.7766149743276344e-02  2.6767785981135737e-02  2.5557248764800866e-02  2.4097304089268932e-02  2.2348602780825812e-02  2.0272486234477808e-02  1.7836047930796118e-02  1.5018297665596094e-02  1.1824479469787354e-02  8.2736719345820678e-03  4.5083773579055976e-03  3.5028289055871937e-04  2.7011083101165695e-04  3.4862126575370997e-03  6.4150531277688255e-03  9.2041435139762050e-03  1.1745054999363534e-02  1.4018491596681764e-02  1.6013012709104626e-02  1.7736649320831490e-02  1.9207826648426154e-02  2.0451128515545744e-02  2.1493492900355862e-02  2.2361750968839238e-02  2.3081118019860698e-02  2.3674399244468191e-02  2.4161671163585526e-02  2.4560259523129582e-02  2.4884886306438064e-02  2.5147901202738583e-02  2.5359543892336123e-02  2.5528204865628287e-02  2.5660666518835452e-02  2.5762315116723538e-02  2.5837319544076066e-02  2.5888775784145977e-02  2.5918817590206873e-02  2.5928694401269600e-02  2.5918817588281354e-02  2.5888775783544569e-02  2.5837319543886923e-02  2.5762315116932600e-02  2.5660666519314111e-02  2.5528204866299718e-02  2.5359543893142801e-02  2.5147901203645871e-02  2.4884886307430128e-02  2.4560259524165358e-02  2.4161671164665676e-02  2.3674399245603012e-02  2.3081118021052095e-02  2.2361750970087236e-02  2.1493492901665547e-02  2.0451128517244167e-02  1.9207826648774611e-02  1.7736649320160256e-02  1.6013012708986113e-02  1.4018491596703016e-02  1.1745054999481773e-02  9.2041435140959166e-03  6.4150531278826502e-03  3.4862126575239669e-03  2.7011083128314876e-04  2.0967462499979110e-04  2.7115837610885499e-03  4.9998628018930362e-03  7.1955102475853303e-03  9.2160643691738819e-03  1.1044954454400751e-02  1.2669265069964112e-02  1.4090369909595599e-02  1.5317877993758493e-02  1.6367005156806200e-02  1.7255825223639592e-02  1.8003328674476959e-02  1.8628087960432988e-02  1.9147440555970920e-02  1.9577050892031999e-02  1.9930733652269227e-02  2.0220444673240870e-02  2.0456370913142993e-02  2.0647071929150197e-02  2.0799641366446336e-02  2.0919868510848150e-02  2.1012387886001856e-02  2.1080810099350533e-02  2.1127830432804223e-02  2.1155313631689984e-02  2.1164354402400345e-02  2.1155313629676504e-02  2.1127830432102951e-02  2.1080810099074181e-02  2.1012387886144023e-02  2.0919868511294681e-02  2.0799641367105826e-02  2.0647071929975058e-02  2.0456370914085673e-02  2.0220444674276396e-02  1.9930733653380755e-02  1.9577050893201234e-02  1.9147440557237140e-02  1.8628087961767629e-02  1.8003328675891103e-02  1.7255825225497439e-02  1.6367005157123762e-02  1.5317877992909538e-02  1.4090369909420931e-02  1.2669265069963256e-02  1.1044954454559740e-02  9.2160643693225373e-03  7.1955102477528040e-03  4.9998628020295572e-03  2.7115837610785939e-03  2.0967462527390752e-04  1.6351675434670226e-04  2.1189122741523850e-03  3.9132635391444116e-03  5.6453412232916923e-03  7.2523648129317374e-03  8.7209280021932067e-03  1.0038885145200254e-02  1.1204400323795511e-02  1.2221916265412663e-02  1.3100560401426837e-02  1.3852241944593521e-02  1.4490200506536701e-02  1.5027920357883008e-02  1.5478395338417404e-02  1.5853674326555472e-02  1.6164617115442950e-02  1.6420797462776703e-02  1.6630502531759645e-02  1.6800790472218264e-02  1.6937578761165660e-02  1.7045744509005579e-02  1.7129224330982899e-02  1.7191105924451236e-02  1.7233706591042262e-02  1.7258635970781217e-02  1.7266841512697518e-02  1.7258635968723131e-02  1.7233706590243422e-02  1.7191105924080956e-02  1.7129224331059782e-02  1.7045744509413572e-02  1.6937578761816934e-02  1.6800790473053526e-02  1.6630502532726847e-02  1.6420797463863299e-02  1.6164617116629133e-02  1.5853674327850006e-02  1.5478395339834942e-02  1.5027920359401750e-02  1.4490200508530166e-02  1.3852241944906772e-02  1.3100560400388393e-02  1.2221916265099093e-02  1.1204400323730154e-02  1.0038885145358336e-02  8.7209280024220133e-03  7.2523648131475457e-03  5.6453412234890926e-03  3.9132635393056272e-03  2.1189122741524973e-03  1.6351675462657509e-04  1.2801364612692937e-04  1.6619249980372585e-03  3.0731908812661095e-03  4.4421177679074917e-03  5.7207464837448728e-03  6.8985960922381294e-03  7.9650940675242785e-03  8.9170923500067785e-03  9.7561093463089908e-03  1.0487403122715623e-02  1.1118680261208238e-02  1.1659050099796354e-02  1.2118185277876222e-02  1.2505708559817866e-02  1.2830776495630405e-02  1.3101822310284309e-02  1.3326418515511205e-02  1.3511224208679475e-02  1.3661988442116127e-02  1.3783587673505935e-02  1.3880081153654156e-02  1.3954772844611774e-02  1.4010272084889421e-02  1.4048547865866481e-02  1.4070973452240064e-02  1.4078359344898228e-02  1.4070973450138925e-02  1.4048547864974703e-02  1.4010272084414497e-02  1.3954772844612424e-02  1.3880081154005458e-02  1.3783587674152772e-02  1.3661988442953679e-02  1.3511224209685591e-02  1.3326418516653142e-02  1.3101822311580353e-02  1.2830776497083930e-02  1.2505708561392029e-02  1.2118185279968661e-02  1.1659050100104717e-02  1.1118680259971541e-02  1.0487403122268753e-02  9.7561093461349304e-03  8.9170923500819805e-03  7.9650940677788665e-03  6.8985960925368028e-03  5.7207464840179087e-03  4.4421177681403592e-03  3.0731908814500765e-03  1.6619249980682237e-03  1.2801364639976960e-04  1.0051884533701568e-04  1.3072998353305214e-03  2.4199270746539416e-03  3.5035065033088399e-03  4.5212670602669605e-03  5.4651626663632840e-03  6.3263675265858316e-03  7.1014065003566790e-03  7.7902258878808249e-03  8.3956752413227621e-03  8.9226429175846122e-03  9.3773202226217160e-03  9.7665738593326421e-03  1.0097458421913846e-02  1.0376861326418799e-02  1.0611262841919711e-02  1.0806588454631045e-02  1.0968130847905230e-02  1.1100521327115176e-02  1.1207734064481122e-02  1.1293110181357358e-02  1.1359391944873860e-02  1.1408760047580910e-02  1.1442869046362773e-02  1.1462877624220557e-02  1.1469471494157347e-02  1.1462877622072952e-02  1.1442869045383778e-02  1.1408760047021691e-02  1.1359391944802115e-02  1.1293110181669968e-02  1.1207734065095887e-02  1.1100521327975649e-02  1.0968130848963076e-02  1.0806588455880868e-02  1.0611262843338702e-02  1.0376861327990075e-02  1.0097458424024514e-02  9.7665738595774845e-03  9.3773202212013174e-03  8.9226429169700968e-03  8.3956752410312696e-03  7.7902258878522609e-03  7.1014065005475810e-03  6.3263675269156581e-03  5.4651626667165587e-03  4.5212670605869112e-03  3.5035065035732898e-03  2.4199270748691362e-03  1.3072998353767379e-03  1.0051884561078466e-04  7.9107552498021346e-05  1.0305892847127232e-03  1.9093414746753482e-03  2.7680208326012271e-03  3.5783331118259083e-03  4.3341684147639977e-03  5.0283372163498459e-03  5.6575201646771279e-03  6.2208869916133436e-03  6.7198228968554001e-03  7.1573537905548403e-03  7.5376367110566332e-03  7.8655012865091450e-03  8.1460744915361014e-03  8.3844914552093520e-03  8.5856865430054812e-03  8.7542528429788886e-03  8.8943562509678775e-03  9.0096906340356008e-03  9.1034621247721905e-03  9.1783926278634215e-03  9.2367347027759745e-03  9.2802918654518261e-03  9.3104399306732210e-03  9.3281462877179439e-03  9.3339849853768999e-03  9.3281462855476574e-03  9.3104399296231443e-03  9.2802918648318272e-03  9.2367347026644231e-03  9.1783926281507246e-03  9.1034621253902638e-03  9.0096906349306938e-03  8.8943562521027232e-03  8.7542528443480486e-03  8.5856865445154036e-03  8.3844914572542301e-03  8.1460744916404728e-03  7.8655012848602868e-03  7.5376367102280295e-03  7.1573537900911088e-03  6.7198228967388285e-03  6.2208869916911460e-03  5.6575201649699614e-03  5.0283372167390364e-03  4.3341684151479293e-03  3.5783331121896226e-03  2.7680208328950259e-03  1.9093414749134069e-03  1.0305892847691112e-03  7.9107552769482869e-05  6.2349533640140508e-05  8.1360139559957724e-04  1.5084113741364370e-03  2.1892725766837068e-03  2.8343458837280146e-03  3.4390222077151744e-03  3.9975347891274982e-03  4.5069293999464490e-03  4.9660552317790860e-03  5.3754337556981653e-03  5.7368777568313012e-03  6.0531422252534783e-03  6.3275945598406996e-03  6.5639322156436719e-03  6.7659544916294743e-03  6.9373886950333530e-03  7.0817654080119561e-03  7.2023350598659167e-03  7.3020172139238249e-03  7.3833743236188156e-03  7.4486027092325342e-03  7.4995347128143531e-03  7.5376472227923624e-03  7.5640728831796568e-03  7.5796112688099500e-03  7.5847381028103624e-03  7.5796112666567305e-03  7.5640728820991045e-03  7.5376472221507567e-03  7.4995347126935643e-03  7.4486027095204254e-03  7.3833743242676664e-03  7.3020172148732226e-03  7.2023350610873824e-03  7.0817654094200823e-03  6.9373886970264236e-03  6.7659544915588260e-03  6.5639322137093989e-03  6.3275945587213051e-03  6.0531422245510098e-03  5.7368777565451126e-03  5.3754337556893607e-03  4.9660552319682029e-03  4.5069294003066166e-03  3.9975347895555144e-03  3.4390222081234260e-03  2.8343458841250144e-03  2.1892725770131663e-03  1.5084113743931440e-03  8.1360139567286964e-04  6.2349533912667681e-05  4.9170609020284628e-05  6.4263626360302572e-04  1.1921611938753602e-03  1.7319523903898439e-03  2.2451140081182169e-03  2.7281839453114688e-03  3.1765847627982153e-03  3.5877931758082661e-03  3.9605900095116353e-03  4.2950094953812940e-03  4.5920868711456508e-03  4.8536209520060759e-03  5.0819395303969006e-03  5.2796903464317983e-03  5.4496650455622044e-03  5.5946590204296806e-03  5.7173656223632272e-03  5.8203007466788425e-03  5.9057526226299374e-03  5.9757513748403121e-03  6.0320532254653711e-03  6.0761348607724338e-03  6.1091942278327978e-03  6.1321547888517434e-03  6.1456709651333671e-03  6.1501331172727708e-03  6.1456709630800591e-03  6.1321547878008193e-03  6.1091942272119204e-03  6.0761348606745693e-03  6.0320532257868023e-03  5.9757513755368712e-03  5.9057526236434982e-03  5.8203007479102177e-03  5.7173656241862715e-03  5.5946590202253267e-03  5.4496650433785926e-03  5.2796903449986504e-03  5.0819395293546241e-03  4.8536209514580056e-03  4.5920868709744952e-03  4.2950094954518044e-03  3.9605900097960320e-03  3.5877931762045541e-03  3.1765847632537368e-03  2.7281839457573499e-03  2.2451140085419856e-03  1.7319523907384129e-03  1.1921611941574288e-03  6.4263626367879660e-04  4.9170609308837873e-05  3.8755277805642833e-05  5.0727063405139894e-04  9.4152416919332743e-04  1.3689660534791511e-03  1.7765092315065604e-03  2.1615613527688937e-03  2.5205173571568699e-03  2.8512793434399587e-03  3.1526916618704087e-03  3.4245335988454489e-03  3.6673519432934903e-03  3.8823003263702611e-03  4.0709736377714523e-03  4.2352551227655688e-0