<?xml version="1.0"?>
<VTKFile type="UnstructuredGrid"  version="0.1"  >
<UnstructuredGrid>
<Piece  NumberOfPoints="25" NumberOfCells="36">
<Points>
<DataArray  type="Float64"  NumberOfComponents="3"  format="ascii">0 0 0  3.333333333333333 0 0  6.666666666666667 0 0  10 0 0  0 3.333333333333333 0  3.333333333333333 3.333333333333333 0  6.666666666666667 3.333333333333333 0  10 3.333333333333333 0  0 6.666666666666667 0  3.333333333333333 6.666666666666667 0  6.666666666666667 6.666666666666667 0  10 6.666666666666667 0  0 10 0  3.333333333333333 10 0  6.666666666666667 10 0  10 10 0  1.666666666666667 1.666666666666667 0  5 1.666666666666667 0  8.333333333333334 1.666666666666667 0  1.666666666666667 5 0  5 5 0  8.333333333333334 5 0  1.666666666666667 8.333333333333334 0  5 8.333333333333334 0  8.333333333333334 8.333333333333334 0  </DataArray>
</Points>
<Cells>
<DataArray  type="UInt32"  Name="connectivity"  format="ascii">0 1 16  0 4 16  1 5 16  4 5 16  1 2 17  1 5 17  2 6 17  5 6 17  2 3 18  2 6 18  3 7 18  6 7 18  4 5 19  4 8 19  5 9 19  8 9 19  5 6 20  5 9 20  6 10 20  9 10 20  6 7 21  6 10 21  7 11 21  10 11 21  8 9 22  8 12 22  9 13 22  12 13 22  9 10 23  9 13 23  10 14 23  13 14 23  10 11 24  10 14 24  11 15 24  14 15 24  </DataArray>
<DataArray  type="UInt32"  Name="offsets"  format="ascii">3 6 9 12 15 18 21 24 27 30 33 36 39 42 45 48 51 54 57 60 63 66 69 72 75 78 81 84 87 90 93 96 99 102 105 108 </DataArray>
<DataArray  type="UInt8"  Name="types"  format="ascii">5 5 5 5 5 5 5 5 5 5 5 5 5 5 5 5 5 5 5 5 5 5 5 5 5 5 5 5 5 5 5 5 5 5 5 5 </DataArray>
</Cells>
<PointData  Scalars="f_16"> 
<DataArray  type="Float64"  Name="f_16"  format="ascii">1.0001352477893597e+00  1.0003787098603392e+00  1.0001103074060329e+00  1.0001499262422338e+00  9.9995507695074171e-01  9.9163576303239953e-01  9.8164676991207156e-01  1.0000050327473751e+00  9.9983883766880377e-01  1.0290608688021701e+00  9.8139114110842873e-01  9.9982939548334404e-01  1.0001499262422338e+00  5.9946588559898561e-01  9.9982939548334404e-01  1.0001609658423416e+00  9.9975347120111790e-01  9.9707269674398580e-01  9.9986026692276719e-01  9.9737220164170159e-01  1.3210141329199065e-01  9.9730321836450131e-01  9.9967591187883742e-01  8.4785338471077709e-01  9.9965599367397295e-01  </DataArray> 
</PointData> 
</Piece>
</UnstructuredGrid>
</VTKFile>