<?xml version="1.0"?>
<VTKFile type="UnstructuredGrid"  version="0.1"  >
<UnstructuredGrid>
<Piece  NumberOfPoints="2704" NumberOfCells="5202">
<Points>
<DataArray  type="Float64"  NumberOfComponents="3"  format="ascii">0 0 0  0.196078431372549 0 0  0.392156862745098 0 0  0.5882352941176471 0 0  0.7843137254901961 0 0  0.9803921568627451 0 0  1.176470588235294 0 0  1.372549019607843 0 0  1.568627450980392 0 0  1.764705882352941 0 0  1.96078431372549 0 0  2.156862745098039 0 0  2.352941176470588 0 0  2.549019607843137 0 0  2.745098039215686 0 0  2.941176470588236 0 0  3.137254901960784 0 0  3.333333333333333 0 0  3.529411764705882 0 0  3.725490196078431 0 0  3.92156862745098 0 0  4.117647058823529 0 0  4.313725490196078 0 0  4.509803921568627 0 0  4.705882352941177 0 0  4.901960784313726 0 0  5.098039215686274 0 0  5.294117647058823 0 0  5.490196078431373 0 0  5.686274509803922 0 0  5.882352941176471 0 0  6.078431372549019 0 0  6.274509803921569 0 0  6.470588235294118 0 0  6.666666666666667 0 0  6.862745098039215 0 0  7.058823529411764 0 0  7.254901960784314 0 0  7.450980392156863 0 0  7.647058823529412 0 0  7.84313725490196 0 0  8.03921568627451 0 0  8.235294117647058 0 0  8.431372549019608 0 0  8.627450980392156 0 0  8.823529411764707 0 0  9.019607843137255 0 0  9.215686274509803 0 0  9.411764705882353 0 0  9.607843137254902 0 0  9.803921568627452 0 0  10 0 0  0 0.196078431372549 0  0.196078431372549 0.196078431372549 0  0.392156862745098 0.196078431372549 0  0.5882352941176471 0.196078431372549 0  0.7843137254901961 0.196078431372549 0  0.9803921568627451 0.196078431372549 0  1.176470588235294 0.196078431372549 0  1.372549019607843 0.196078431372549 0  1.568627450980392 0.196078431372549 0  1.764705882352941 0.196078431372549 0  1.96078431372549 0.196078431372549 0  2.156862745098039 0.196078431372549 0  2.352941176470588 0.196078431372549 0  2.549019607843137 0.196078431372549 0  2.745098039215686 0.196078431372549 0  2.941176470588236 0.196078431372549 0  3.137254901960784 0.196078431372549 0  3.333333333333333 0.196078431372549 0  3.529411764705882 0.196078431372549 0  3.725490196078431 0.196078431372549 0  3.92156862745098 0.196078431372549 0  4.117647058823529 0.196078431372549 0  4.313725490196078 0.196078431372549 0  4.509803921568627 0.196078431372549 0  4.705882352941177 0.196078431372549 0  4.901960784313726 0.196078431372549 0  5.098039215686274 0.196078431372549 0  5.294117647058823 0.196078431372549 0  5.490196078431373 0.196078431372549 0  5.686274509803922 0.196078431372549 0  5.882352941176471 0.196078431372549 0  6.078431372549019 0.196078431372549 0  6.274509803921569 0.196078431372549 0  6.470588235294118 0.196078431372549 0  6.666666666666667 0.196078431372549 0  6.862745098039215 0.196078431372549 0  7.058823529411764 0.196078431372549 0  7.254901960784314 0.196078431372549 0  7.450980392156863 0.196078431372549 0  7.647058823529412 0.196078431372549 0  7.84313725490196 0.196078431372549 0  8.03921568627451 0.196078431372549 0  8.235294117647058 0.196078431372549 0  8.431372549019608 0.196078431372549 0  8.627450980392156 0.196078431372549 0  8.823529411764707 0.196078431372549 0  9.019607843137255 0.196078431372549 0  9.215686274509803 0.196078431372549 0  9.411764705882353 0.196078431372549 0  9.607843137254902 0.196078431372549 0  9.803921568627452 0.196078431372549 0  10 0.196078431372549 0  0 0.392156862745098 0  0.196078431372549 0.392156862745098 0  0.392156862745098 0.392156862745098 0  0.5882352941176471 0.392156862745098 0  0.7843137254901961 0.392156862745098 0  0.9803921568627451 0.392156862745098 0  1.176470588235294 0.392156862745098 0  1.372549019607843 0.392156862745098 0  1.568627450980392 0.392156862745098 0  1.764705882352941 0.392156862745098 0  1.96078431372549 0.392156862745098 0  2.156862745098039 0.392156862745098 0  2.352941176470588 0.392156862745098 0  2.549019607843137 0.392156862745098 0  2.745098039215686 0.392156862745098 0  2.941176470588236 0.392156862745098 0  3.137254901960784 0.392156862745098 0  3.333333333333333 0.392156862745098 0  3.529411764705882 0.392156862745098 0  3.725490196078431 0.392156862745098 0  3.92156862745098 0.392156862745098 0  4.117647058823529 0.392156862745098 0  4.313725490196078 0.392156862745098 0  4.509803921568627 0.392156862745098 0  4.705882352941177 0.392156862745098 0  4.901960784313726 0.392156862745098 0  5.098039215686274 0.392156862745098 0  5.294117647058823 0.392156862745098 0  5.490196078431373 0.392156862745098 0  5.686274509803922 0.392156862745098 0  5.882352941176471 0.392156862745098 0  6.078431372549019 0.392156862745098 0  6.274509803921569 0.392156862745098 0  6.470588235294118 0.392156862745098 0  6.666666666666667 0.392156862745098 0  6.862745098039215 0.392156862745098 0  7.058823529411764 0.392156862745098 0  7.254901960784314 0.392156862745098 0  7.450980392156863 0.392156862745098 0  7.647058823529412 0.392156862745098 0  7.84313725490196 0.392156862745098 0  8.03921568627451 0.392156862745098 0  8.235294117647058 0.392156862745098 0  8.431372549019608 0.392156862745098 0  8.627450980392156 0.392156862745098 0  8.823529411764707 0.392156862745098 0  9.019607843137255 0.392156862745098 0  9.215686274509803 0.392156862745098 0  9.411764705882353 0.392156862745098 0  9.607843137254902 0.392156862745098 0  9.803921568627452 0.392156862745098 0  10 0.392156862745098 0  0 0.5882352941176471 0  0.196078431372549 0.5882352941176471 0  0.392156862745098 0.5882352941176471 0  0.5882352941176471 0.5882352941176471 0  0.7843137254901961 0.5882352941176471 0  0.9803921568627451 0.5882352941176471 0  1.176470588235294 0.5882352941176471 0  1.372549019607843 0.5882352941176471 0  1.568627450980392 0.5882352941176471 0  1.764705882352941 0.5882352941176471 0  1.96078431372549 0.5882352941176471 0  2.156862745098039 0.5882352941176471 0  2.352941176470588 0.5882352941176471 0  2.549019607843137 0.5882352941176471 0  2.745098039215686 0.5882352941176471 0  2.941176470588236 0.5882352941176471 0  3.137254901960784 0.5882352941176471 0  3.333333333333333 0.5882352941176471 0  3.529411764705882 0.5882352941176471 0  3.725490196078431 0.5882352941176471 0  3.92156862745098 0.5882352941176471 0  4.117647058823529 0.5882352941176471 0  4.313725490196078 0.5882352941176471 0  4.509803921568627 0.5882352941176471 0  4.705882352941177 0.5882352941176471 0  4.901960784313726 0.5882352941176471 0  5.098039215686274 0.5882352941176471 0  5.294117647058823 0.5882352941176471 0  5.490196078431373 0.5882352941176471 0  5.686274509803922 0.5882352941176471 0  5.882352941176471 0.5882352941176471 0  6.078431372549019 0.5882352941176471 0  6.274509803921569 0.5882352941176471 0  6.470588235294118 0.5882352941176471 0  6.666666666666667 0.5882352941176471 0  6.862745098039215 0.5882352941176471 0  7.058823529411764 0.5882352941176471 0  7.254901960784314 0.5882352941176471 0  7.450980392156863 0.5882352941176471 0  7.647058823529412 0.5882352941176471 0  7.84313725490196 0.5882352941176471 0  8.03921568627451 0.5882352941176471 0  8.235294117647058 0.5882352941176471 0  8.431372549019608 0.5882352941176471 0  8.627450980392156 0.5882352941176471 0  8.823529411764707 0.5882352941176471 0  9.019607843137255 0.5882352941176471 0  9.215686274509803 0.5882352941176471 0  9.411764705882353 0.5882352941176471 0  9.607843137254902 0.5882352941176471 0  9.803921568627452 0.5882352941176471 0  10 0.5882352941176471 0  0 0.7843137254901961 0  0.196078431372549 0.7843137254901961 0  0.392156862745098 0.7843137254901961 0  0.5882352941176471 0.7843137254901961 0  0.7843137254901961 0.7843137254901961 0  0.9803921568627451 0.7843137254901961 0  1.176470588235294 0.7843137254901961 0  1.372549019607843 0.7843137254901961 0  1.568627450980392 0.7843137254901961 0  1.764705882352941 0.7843137254901961 0  1.96078431372549 0.7843137254901961 0  2.156862745098039 0.7843137254901961 0  2.352941176470588 0.7843137254901961 0  2.549019607843137 0.7843137254901961 0  2.745098039215686 0.7843137254901961 0  2.941176470588236 0.7843137254901961 0  3.137254901960784 0.7843137254901961 0  3.333333333333333 0.7843137254901961 0  3.529411764705882 0.7843137254901961 0  3.725490196078431 0.7843137254901961 0  3.92156862745098 0.7843137254901961 0  4.117647058823529 0.7843137254901961 0  4.313725490196078 0.7843137254901961 0  4.509803921568627 0.7843137254901961 0  4.705882352941177 0.7843137254901961 0  4.901960784313726 0.7843137254901961 0  5.098039215686274 0.7843137254901961 0  5.294117647058823 0.7843137254901961 0  5.490196078431373 0.7843137254901961 0  5.686274509803922 0.7843137254901961 0  5.882352941176471 0.7843137254901961 0  6.078431372549019 0.7843137254901961 0  6.274509803921569 0.7843137254901961 0  6.470588235294118 0.7843137254901961 0  6.666666666666667 0.7843137254901961 0  6.862745098039215 0.7843137254901961 0  7.058823529411764 0.7843137254901961 0  7.254901960784314 0.7843137254901961 0  7.450980392156863 0.7843137254901961 0  7.647058823529412 0.7843137254901961 0  7.84313725490196 0.7843137254901961 0  8.03921568627451 0.7843137254901961 0  8.235294117647058 0.7843137254901961 0  8.431372549019608 0.7843137254901961 0  8.627450980392156 0.7843137254901961 0  8.823529411764707 0.7843137254901961 0  9.019607843137255 0.7843137254901961 0  9.215686274509803 0.7843137254901961 0  9.411764705882353 0.7843137254901961 0  9.607843137254902 0.7843137254901961 0  9.803921568627452 0.7843137254901961 0  10 0.7843137254901961 0  0 0.9803921568627451 0  0.196078431372549 0.9803921568627451 0  0.392156862745098 0.9803921568627451 0  0.5882352941176471 0.9803921568627451 0  0.7843137254901961 0.9803921568627451 0  0.9803921568627451 0.9803921568627451 0  1.176470588235294 0.9803921568627451 0  1.372549019607843 0.9803921568627451 0  1.568627450980392 0.9803921568627451 0  1.764705882352941 0.9803921568627451 0  1.96078431372549 0.9803921568627451 0  2.156862745098039 0.9803921568627451 0  2.352941176470588 0.9803921568627451 0  2.549019607843137 0.98
[...]
<PointData  Scalars="f_21"> 
<DataArray  type="Float64"  Name="f_21"  format="ascii">9.9999866447957786e-01  9.9999810542001610e-01  9.9999752123926156e-01  9.9999677632993433e-01  9.9999583439239181e-01  9.9999465392445241e-01  9.9999318863345199e-01  9.9999138839342072e-01  9.9998920090635868e-01  9.9998657420920412e-01  9.9998346012870343e-01  9.9997981871208352e-01  9.9997562354717440e-01  9.9997086773203459e-01  9.9996557007053866e-01  9.9995978087743809e-01  9.9995358660699396e-01  9.9994711241617806e-01  9.9994052178318649e-01  9.9993401246412239e-01  9.9992780840437334e-01  9.9992214771211674e-01  9.9991726739371944e-01  9.9991338614913805e-01  1.0000617214215968e+00  6.8547012223009895e-01  1.0266736792914868e+00  9.9989640994900386e-01  9.9991337562240246e-01  9.9991725272742060e-01  9.9992212898964272e-01  9.9992778574738883e-01  9.9993398603880101e-01  9.9994049180399203e-01  9.9994707914627790e-01  9.9995355035498379e-01  9.9995974199063142e-01  9.9996552892553803e-01  9.9997082472358600e-01  9.9997557907639012e-01  9.9997977317504438e-01  9.9998341390625012e-01  9.9998652765847706e-01  9.9998915435437796e-01  9.9999134213276653e-01  9.9999314291992125e-01  9.9999460897644532e-01  9.9999579039171427e-01  9.9999673342367923e-01  9.9999747954244578e-01  9.9999806624631860e-01  9.9999858260929897e-01  9.9999810542001610e-01  9.9999734260416762e-01  9.9999654242364200e-01  9.9999551881370530e-01  9.9999421778521147e-01  9.9999257821439524e-01  9.9999053104003244e-01  9.9998800039891167e-01  9.9998490581244426e-01  9.9998116567699735e-01  9.9997670226523416e-01  9.9997144834454388e-01  9.9996535534963116e-01  9.9995840280548931e-01  9.9995060839411332e-01  9.9994203772260370e-01  9.9993281253377164e-01  9.9992311587593796e-01  9.9991319270127998e-01  9.9990334457075714e-01  9.9989391765659807e-01  9.9988528404160049e-01  9.9987781733285253e-01  9.9987186467278966e-01  1.0003228454272690e+00  5.6932201039816888e-01  1.1817427849647606e+00  9.9963644848783695e-01  9.9987185980137872e-01  9.9987781069847537e-01  9.9988527581908171e-01  9.9989390805604628e-01  9.9990333382782748e-01  9.9991318106663585e-01  9.9992310360461989e-01  9.9993279987517825e-01  9.9994202491169881e-01  9.9995059564432465e-01  9.9995839030357014e-01  9.9996534325255670e-01  9.9997143677833333e-01  9.9997669132544598e-01  9.9998115543056165e-01  9.9998489630045673e-01  9.9998799164002383e-01  9.9999052303411262e-01  9.9999257094619443e-01  9.9999421122783572e-01  9.9999551293176081e-01  9.9999653717597592e-01  9.9999733828198811e-01  9.9999806584903905e-01  9.9999752123926156e-01  9.9999654242364200e-01  9.9999546580272447e-01  9.9999407875298774e-01  9.9999230328734823e-01  9.9999004974775985e-01  9.9998721549826841e-01  9.9998368614243471e-01  9.9997933828836438e-01  9.9997404430038994e-01  9.9996767943407516e-01  9.9996013162145947e-01  9.9995131393093983e-01  9.9994117935573801e-01  9.9992973709225086e-01  9.9991706889286081e-01  9.9990334349653243e-01  9.9988882667693446e-01  9.9987388425486035e-01  9.9985897565415660e-01  9.9984463634981002e-01  9.9983144887906916e-01  9.9982000383786129e-01  9.9981085418884286e-01  1.0002594479060150e+00  5.6773921123745585e-01  1.1776302029191574e+00  9.9957439837763962e-01  9.9981084811981036e-01  9.9981999557852763e-01  9.9983143865312440e-01  9.9984462442614563e-01  9.9985896233422566e-01  9.9987386985886340e-01  9.9988881152978870e-01  9.9990332791461556e-01  9.9991705317241475e-01  9.9992972150011850e-01  9.9994116412282508e-01  9.9995129924848825e-01  9.9996011763995363e-01  9.9996766626439448e-01  9.9997403201670676e-01  9.9997932693224256e-01  9.9998367572761215e-01  9.9998720601567825e-01  9.9999004117043877e-01  9.9999229557498326e-01  9.9999407185594347e-01  9.9999545966547421e-01  9.9999653712856706e-01  9.9999747908801195e-01  9.9999677632993433e-01  9.9999551881370530e-01  9.9999407875298774e-01  9.9999220972701963e-01  9.9998979998064808e-01  9.9998671881208478e-01  9.9998281461160432e-01  9.9997791591442209e-01  9.9997183469124018e-01  9.9996437262067361e-01  9.9995533107016543e-01  9.9994452536186307e-01  9.9993180356698763e-01  9.9991706951730652e-01  9.9990030893599513e-01  9.9988161661509845e-01  9.9986122151885137e-01  9.9983950577047886e-01  9.9981701295540715e-01  9.9979444134360029e-01  9.9977261874285217e-01  9.9975245783259736e-01  9.9973489383153002e-01  9.9972080976091382e-01  1.0001657671879902e+00  5.6774996170672853e-01  1.1774562725441267e+00  9.9948100561704956e-01  9.9972080226598525e-01  9.9973488363819540e-01  9.9975244522394924e-01  9.9977260405982893e-01  9.9979442496889015e-01  9.9981699529551549e-01  9.9983948723726035e-01  9.9986120251192268e-01  9.9988159750644867e-01  9.9990029005780812e-01  9.9991705115357576e-01  9.9993178594904442e-01  9.9994450866752504e-01  9.9995531542591531e-01  9.9996435810611650e-01  9.9997182134504492e-01  9.9997790374101858e-01  9.9998280358802594e-01  9.9998670889449748e-01  9.9998979111025821e-01  9.9999220183518467e-01  9.9999407176546518e-01  9.9999551280053822e-01  9.9999673290151914e-01  9.9999583439239181e-01  9.9999421778521147e-01  9.9999230328734823e-01  9.9998979998064808e-01  9.9998654858378500e-01  9.9998235983396544e-01  9.9997701124636440e-01  9.9997024748361163e-01  9.9996178389083989e-01  9.9995131442827279e-01  9.9993852528667360e-01  9.9992311533085931e-01  9.9990482408859860e-01  9.9988346719956478e-01  9.9985897801276979e-01  9.9983145240217242e-01  9.9980119201487905e-01  9.9976873938803579e-01  9.9973489713751573e-01  9.9970072329473736e-01  9.9966749636496155e-01  9.9963664707826516e-01  9.9960965893215903e-01  9.9958794573260823e-01  1.0000273286991812e+00  5.6773860679802346e-01  1.1772249335576848e+00  9.9934290199057707e-01  9.9958793648678146e-01  9.9960964636176453e-01  9.9963663153852789e-01  9.9966747828567848e-01  9.9970070316020521e-01  9.9973487546339124e-01  9.9976871669690981e-01  9.9980116881267433e-01  9.9983142915739964e-01  9.9985895514023360e-01  9.9988344504942472e-01  9.9990480294095152e-01  9.9992309539537094e-01  9.9993850670633722e-01  9.9995129728615351e-01  9.9996176821864169e-01  9.9997023327102597e-01  9.9997699845037080e-01  9.9998234838748912e-01  9.9998653840333829e-01  9.9998979097277718e-01  9.9999229535384748e-01  9.9999421097942709e-01  9.9999578980304549e-01  9.9999465392445241e-01  9.9999257821439524e-01  9.9999004974775985e-01  9.9998671881208478e-01  9.9998235983396544e-01  9.9997670073414602e-01  9.9996941733943956e-01  9.9996013207987833e-01  9.9994841704465731e-01  9.9993380338904225e-01  9.9991579929797192e-01  9.9989391865750354e-01  9.9986772209360986e-01  9.9983687093219120e-01  9.9980119277782920e-01  9.9976075477901138e-01  9.9971593742592657e-01  9.9966749838228541e-01  9.9961661317311323e-01  9.9956487857135357e-01  9.9951426630923745e-01  9.9946702000596022e-01  9.9942549689372806e-01  9.9939196686888332e-01  9.9982275925056285e-01  5.6769244453049450e-01  1.1769106567860366e+00  9.9913872934618908e-01  9.9939195549135418e-01  9.9942548142268794e-01  9.9946700088108820e-01  9.9951424406744482e-01  9.9956485382255955e-01  9.9961658657058061e-01  9.9966747059002981e-01  9.9971590908649166e-01  9.9976072648491165e-01  9.9980116504925154e-01  9.9983684420241059e-01  9.9986769670234998e-01  9.9989389485144953e-01  9.9991577723696534e-01  9.9993378315620285e-01  9.9994839865870055e-01  9.9996011550815023e-01  9.9996940251053223e-01  9.9997668754933833e-01  9.9998234817705967e-01  9.9998670855747640e-01  9.9999004076677045e-01  9.9999257053830226e-01  9.9999460832818632e-01  9.9999318863345199e-01  9.9999053104003244e-01  9.9998721549826841e-01  9.9998281461160432e-01  9.9997701124636440e-01  9.9996941733943956e-01  9.9995956419950871e-01  9.9994689776346657e-01  9.9993077965000376e-01  9.9991049715445579e-01  9.9988528586475245e-01  9.9985436876931033e-01  9.9981701528485667e-01  9.9977262221811969e-01  9.9972081597414075e-01  9.9966157116401599e-01  9.9959533529049005e-01  9.9952314304800971e-01  9.9944669824173515e-01  9.9936839827134083e-01  9.9929127766139425e-01  9.9921885496482898e-01  9.9915488193186208e-01  9.9910301342217167e-01  9.9952050726880659e-01  5.6759247038064520e-01  1.1764759010930124e+00  9.9883695751464185e-01  9.9910299948268144e-01  9.9915486295905087e-01  9.9921883149121549e-01  9.9929125034852428e-01  9.9936836788207140e-01  9.9944666560241191e-01  9.9952310900428532e-01  9.9959530066223667e-01  9.9966153670492919e-01  9.9972078234040118e-01  9.9977258994847817e-01  9.9981698479242020e-01  9.9985434034363652e-01  9.9988525968184672e-01  9.9991047329192395e-01  9.9993075810476806e-01  9.9994687846992869e-01  9.9995954704663592e-01  9.9996940218582697e-01  9.9997699793281702e-01  9.9998280297114683e-01  9.9998720536373198e-01  9.9999052241407005e-01  9.9999314222717262e-01  9.9999138839342072e-01  9.9998800039891167e-01  9.9998368614243471e-01  9.9997791591442209e-01  9.9997024748361163e-01  9.9996013207987833e-01  9.9994689776346657e-01  9.9992973822540787e-01  9.9990770894515413e-01  9.9987973553959630e-01  9.9984464027346975e-01  9.9980119344656349e-01  9.9974819625605438e-01  9.9968460014426264e-01  9.9960966392627959e-01  9.9952314363322514e-01  9.9942550093873572e-01  9.9931810502889518e-01  9.9920339178892503e-01  9.9908493646569352e-01  9.9896739564898307e-01  9.9885628535470750e-01  9.9875758599541931e-01  9.9867719995428250e-01  9.9907402366637887e-01  5.6741034555116387e-01  1.1758654086331179e+00  9.9839106811495981e-01  9.9867718299492403e-01  9.9875756286072448e-01  9.9885625666733857e-01  9.9896736220742566e-01  9.9908489921540733e-01  9.9920335177411845e-01  9.9931806333101580e-01  9.9942545861127774e-01  9.9952310164272451e-01  9.9960962310700641e-01  9.9968456117042381e-01  9.9974815963166919e-01  9.9980115951044157e-01  9.9984460921525342e-01  9.9987970742249532e-01  9.9990768373147842e-01  9.9992971580188539e-01  9.9994687796433024e-01  9.9996011470660118e-01  9.9997023232087245e-01  9.9997790274236953e-01  9.9998367474561722e-01  9.9998799074344591e-01  9.9999134142188295e-01  9.9998920090635868e-01  9.9998490581244426e-01  9.9997933828836438e-01  9.9997183469124018e-01  9.9996178389083989e-01  9.9994841704465731e-01  9.9993077965000376e-01  9.9990770894515413e-01  9.9987782003097314e-01  9.9983950793226584e-01  9.9979097500716729e-01  9.9973029496781141e-01  9.9965552556644854e-01  9.9956488068847094e-01  9.9945696791155614e-01  9.9933108831091078e-01  9.9918758073540848e-01  9.9902817356919860e-01  9.9885628588689068e-01  9.9867720234960267e-01  9.9849803996301756e-01  9.9832743825331938e-01  9.9817494293983189e-01  9.9805011508932939e-01  9.9841468953918300e-01  5.6710393060629893e-01  1.1749978058003996e+00  9.9773248656805014e-01  9.9805009467334982e-01  9.9817491496917798e-01  9.9832740341347814e-01  9.9849799918832061e-01  9.9867715679867841e-01  9.9885623688027292e-01  9.9902812250013406e-01  9.9918752897171426e-01  9.9933103710580973e-01  9.9945691833645678e-01  9.9956483359362247e-01  9.9965548156893225e-01  9.9973025446193076e-01  9.9979093819029508e-01  9.9983947483914704e-01  9.9987779057062598e-01  9.9990768293615240e-01  9.9993075685156574e-01  9.9994839718232087e-01  9.9996176667649761e-01  9.9997181983792027e-01  9.9997932552048530e-01  9.9998489505014909e-01  9.9998915366663932e-01  9.9998657420920412e-01  9.9998116567699735e-01  9.9997404430038994e-01  9.9996437262067361e-01  9.9995131442827279e-01  9.9993380338904225e-01  9.9991049715445579e-01  9.9987973553959630e-01  9.9983950793226584e-01  9.9978744035784239e-01  9.9972081656642442e-01  9.9963665141100766e-01  9.9953183759403064e-01  9.9940338689871300e-01  9.9924878200683953e-01  9.9906644234636022e-01  9.9885628498640622e-01  9.9862032909513887e-01  9.9836325320068764e-01  9.9809277701847043e-01  9.9781971811146553e-01  9.9755758544817397e-01  9.9732163117547079e-01  9.9712739045425747e-01  9.9744146759546881e-01  5.6661072356968056e-01  1.1737532640571251e+00  9.9676023986650530e-01  9.9712736625825371e-01  9.9732159776598384e-01  9.9755754349723713e-01  9.9781966866128502e-01  9.9809272147152683e-01  9.9836319323534262e-01  9.9862026652893432e-01  9.9885622162168874e-01  9.9906637983125879e-01  9.9924872173372015e-01  9.9940332994858327e-01  9.9953178472399795e-01  9.9963660307506330e-01  9.9972077295748485e-01  9.9978740145983525e-01  9.9983947357357172e-01  9.9987970544211446e-01  9.9991047097520547e-01  9.9993378075321759e-01  9.9995129495398305e-01  9.9996435593634969e-01  9.9997403005614638e-01  9.9998115373590424e-01  9.9998652705430136e-01  9.9998346012870343e-01  9.9997670226523416e-01  9.9996767943407516e-01  9.9995533107016543e-01  9.9993852528667360e-01  9.9991579929797192e-01  9.9988528586475245e-01  9.9984464027346975e-01  9.9979097500716729e-01  9.9972081656642442e-01  9.9963010560951993e-01  9.9951426901997775e-01  9.9936839929292665e-01  9.9918758023932430e-01  9.9896739457842443e-01  9.9870463352016392e-01  9.9839819578420708e-01  9.9805011058409121e-01  9.9766654844471525e-01  9.9725860756588192e-01  9.9684260640164801e-01  9.9643960986423818e-01  9.9607400117877054e-01  9.9577109831351285e-01  9.9600582327941245e-01  5.6583825734719329e-01  1.1719554312141141e+00  9.9532588699740565e-01  9.9577107028180400e-01  9.9607396193458564e-01  9.9643955989960720e-01  9.9684254679240025e-01  9.9725853999315894e-01  9.9766647506993855e-01  9.9805003382547419e-01  9.9839811806373846e-01  9.9870455704183869e-01  9.9896732117415254e-01  9.9918751129254280e-01  9.9936833573048389e-01  9.9951421135305907e-01  9.9963005400268001e-01  9.9972077091702416e-01  9.9979093502269445e-01  9.9984460553936683e-01  9.9988525589948718e-01  9.9991577359489969e-01  9.9993850334388501e-01  9.9995531241029045e-01  9.9996766361620137e-01  9.9997668908251969e-01  9.9998341346979436e-01  9.9997981871208352e-01  9.9997144834454388e-01  9.9996013162145947e-01  9.9994452536186307e-01  9.9992311533085931e-01  9.9989391865750354e-01  9.9985436876931033e-01  9.9980119344656349e-01  9.9973029496781141e-01  9.9963665141100766e-01  9.9951426901997775e-01  9.9935622873260621e-01  9.9915488393676588e-01  9.9890227781824359e-01  9.9859085123132896e-01  9.9821449691619057e-01  9.9776997221450991e-01  9.9725860052914317e-01  9.9668806949890376e-01  9.9607398569409866e-01  9.9544071138950196e-01  9.9482095506474288e-01  9.9425369118838869e-01  9.9378029733766005e-01  9.9388988778302090e-01  5.6465012916906543e-01  1.1693451017093544e+00  9.9321169554829358e-01  9.9378026590687807e-01  9.9425364609339772e-01  9.9482089629598358e-01  9.9544063991474541e-01  9.9607390353243308e-01  9.9668797950897914e-01  9.9725850602032851e-01  9.9776987651919224e-01  9.9821440303289821e-01  9.9859076159455273e-01  9.9890219420095272e-01  9.9915480746015572e-01  9.9935615994568461e-01  9.9951420801340429e-01  9.9963659793811721e-01  9.9973024855572723e-01  9.9980115348881282e-01  9.9985433459741402e-01  9.9989388959267322e-01  9.9992309071875718e-01  9.9994450459396522e-01  9.9996011414643482e-01  9.9997143387108900e-01  9.9997977301891527e-01  9.9997562354717440e-01  9.9996535534963116e-01  9.9995131393093983e-01  9.9993180356698763e-01  9.9990482408859860e-01  9.9986772209360986e-01  9.9981701528485667e-01  9.9974819625605438e-01  9.9965552556644854e-01  9.9953183759403064e-01  9.9936839929292665e-01  9.9915488393676588e-01  9.9887954796974510e-01  9.9852972510393190e-01  9.9809276913077627e-01  9.9755757083156948e-01  9.9691672403097475e-01  9.9616929785554431e-01  9.9532397067566958e-01  9.9440200541058910e-01  9.9343925323320226e-01  9.9248618336560523e-01  9.9160501768832388e-01  9.9086354570148172e-01  9.9077511884057201e-01  5.6284585155502187e-01  1.1655421298138742e+00  9.9009932226784791e-01  9.9086351204811962e-01  9.9160496721615077e-01  9.9248611499932859e-01  9.9343916762022355e-01  9.9440190505698922e-01  9.9532385953539426e-01  9.9616918062128290e-01  9.9691660540095661e-01  9.9755745494170234e-01  9.9809265922631774e-01  9.9852962343527185e-01  9.9887945585118643e-01  9.9915480189826766e-01  9.9936832726674596e-01  9.9953177509723568e-01  9.9965547185806047e-01  9.9974815046074694e-01  9.9981697648333057e-01  9.9986768938398352e-01  9.9990479662469378e-01  9.9993178057938470e-01  9.9995129473590705e-01  9.9996533955533928e-01  9.9997557934603620e-01  9.9997086773203459e-01  9.9995840280548931e-01  9.9994117935573801e-01  9.9991706951730652e-01  9.9988346719956478e-01  9.9983687093219120e-01  9.9977262221811969e-01  9.9968460014426264e-01  9.9956488068847094e-01  9.9940338689871300e-01  9.9918758023932430e-01  9.9890227781824359e-01  9.9852972510393190e-01  9.9805010545636808e-01  9.9744271553153740e-01  9.9668805738255806e-01  9.9577105758881956e-01  9.9468547210585112e-01  9.9343922415364772e-01  9.9205993430995754e-01  9.9059930217728176e-01  9.8913448722256392e-01  9.8776455319064715e-01  9.8660075966596672e-01  9.8619792961864838e-01  5.6013217354012512e-01  1.1599909451117181e+00  9.8552547044500405e-01  9.8660072574322311e-01  9.8776449799985411e-01  9.8913440773908878e-01  9.9059919852256983e-01  9.9205980989044729e-01  9.9343908478780929e-01  9.9468532470160720e-01  9.9577090889780540e-01  9.9668791313175165e-01  9.9744257999930730e-01  9.9804998141286871e-01  9.9852961398310169e-01  9.9890217999791286e-01  9.9918749534112727e-01  9.9940331405690264e-01  9.9956481876570447e-01  9.9968454789084271e-01  9.9977257838086464e-01  9.9983683432288450e-01  9.9988343673329916e-01  9.9991704422976402e-01  9.9994115840660414e-01  9.9995838568526918e-01  9.9997082560078032e-01  9.9996557007053866e-01  9.9995060839411332e-01  9.9992973709225086e-01  9.9990030893599513e-01  9.9985897801276979e-01  9.9980119277782920e-01  9.9972081597414075e-01  9.9960966392627959e-01  9.9945696791155614e-01  9.9924878200683953e-01  9.9896739457842443e-01  9.9859085123132896e-01  9.9809276913077627e-01  9.9744271553153740e-01  9.9660752668475316e-01  9.9555402838309470e-01  9.9425362944749696e-01  9.9268910351291628e-01  9.9086343763140894e-01  9.8880981525652600e-01  9.8660064314604090e-01  9.8435231393036915e-01  9.8222176435212183e-01  9.8039173117127787e-01  9.7948815478204176e-01  5.5608308282591090e-01  1.1518839275522483e+00  9.7882039644313268e-01  9.8039169875424614e-01  9.8222170353639970e-01  9.8435221861514810e-01  9.8660051305598884e-01  9.8880965579019353e-01  9.9086325794586838e-01  9.9268891407663717e-01  9.9425344000781180e-01  9.9555384674836134e-01  9.9660735828941094e-01  9.9744256354943739e-01  9.9809263487728750e-01  9.9859073465579584e-01  9.9896729472759549e-01  9.9924869740427902e-01  9.9945689683960270e-01  9.9960960461908899e-01  9.9972076673911014e-01  9.9980115206397269e-01  9.9985894444234991e-01  9.9990028131227304e-01  9.9992971439280098e-01  9.9995058997432362e-01  9.9996553063020310e-01  9.9995978087743809e-01  9.9994203772260370e-01  9.9991706889286081e-01  9.9988161661509845e-01  9.9983145240217242e-01  9.9976075477901138e-01  9.9966157116401599e-01  9.9952314363322514e-01  9.9933108831091078e-01  9.9906644234636022e-01  9.9870463352016392e-01  9.9821449691619057e-01  9.9755757083156948e-01  9.9668805738255806e-01  9.9555402838309470e-01  9.9410066463376257e-01  9.9227645945381382e-01  9.9004324501385532e-01  9.8739038063437412e-01  9.8435220818220381e-01  9.8102578990328482e-01  9.7758329605012473e-01  9.7427130392640571e-01  9.7138965773214114e-01  9.6968646019067584e-01  5.5008578335636504e-01  1.1400564808727049e+00  9.6902537547275425e-01  9.7138962418339314e-01  9.7427122905493135e-01  9.7758317000252448e-01  9.8102561346591333e-01  9.8435199139175233e-01  9.8739013865313596e-01  9.9004299380915972e-01  9.9227621277381151e-01  9.9410043259413794e-01  9.9555381730228110e-01  9.9668787032727391e-01  9.9755740842971441e-01  9.9821435816325055e-01  9.9870451644976277e-01  9.9906634452887544e-01  9.9933100719265311e-01  9.9952307674771301e-01  9.9966151624968091e-01  9.9976070983318932e-01  9.9983141569451961e-01  9.9988158667706761e-01  9.9991704449451646e