<?xml version="1.0"?>
<VTKFile type="UnstructuredGrid"  version="0.1"  >
<UnstructuredGrid>
<Piece  NumberOfPoints="5101" NumberOfCells="10000">
<Points>
<DataArray  type="Float64"  NumberOfComponents="3"  format="ascii">0 0 0  0.2 0 0  0.4 0 0  0.6 0 0  0.8 0 0  1 0 0  1.2 0 0  1.4 0 0  1.6 0 0  1.8 0 0  2 0 0  2.2 0 0  2.4 0 0  2.6 0 0  2.8 0 0  3 0 0  3.2 0 0  3.4 0 0  3.6 0 0  3.8 0 0  4 0 0  4.2 0 0  4.4 0 0  4.6 0 0  4.8 0 0  5 0 0  5.2 0 0  5.4 0 0  5.6 0 0  5.8 0 0  6 0 0  6.2 0 0  6.4 0 0  6.6 0 0  6.8 0 0  7 0 0  7.2 0 0  7.4 0 0  7.6 0 0  7.8 0 0  8 0 0  8.199999999999999 0 0  8.4 0 0  8.6 0 0  8.800000000000001 0 0  9 0 0  9.199999999999999 0 0  9.4 0 0  9.6 0 0  9.800000000000001 0 0  10 0 0  0 0.2 0  0.2 0.2 0  0.4 0.2 0  0.6 0.2 0  0.8 0.2 0  1 0.2 0  1.2 0.2 0  1.4 0.2 0  1.6 0.2 0  1.8 0.2 0  2 0.2 0  2.2 0.2 0  2.4 0.2 0  2.6 0.2 0  2.8 0.2 0  3 0.2 0  3.2 0.2 0  3.4 0.2 0  3.6 0.2 0  3.8 0.2 0  4 0.2 0  4.2 0.2 0  4.4 0.2 0  4.6 0.2 0  4.8 0.2 0  5 0.2 0  5.2 0.2 0  5.4 0.2 0  5.6 0.2 0  5.8 0.2 0  6 0.2 0  6.2 0.2 0  6.4 0.2 0  6.6 0.2 0  6.8 0.2 0  7 0.2 0  7.2 0.2 0  7.4 0.2 0  7.6 0.2 0  7.8 0.2 0  8 0.2 0  8.199999999999999 0.2 0  8.4 0.2 0  8.6 0.2 0  8.800000000000001 0.2 0  9 0.2 0  9.199999999999999 0.2 0  9.4 0.2 0  9.6 0.2 0  9.800000000000001 0.2 0  10 0.2 0  0 0.4 0  0.2 0.4 0  0.4 0.4 0  0.6 0.4 0  0.8 0.4 0  1 0.4 0  1.2 0.4 0  1.4 0.4 0  1.6 0.4 0  1.8 0.4 0  2 0.4 0  2.2 0.4 0  2.4 0.4 0  2.6 0.4 0  2.8 0.4 0  3 0.4 0  3.2 0.4 0  3.4 0.4 0  3.6 0.4 0  3.8 0.4 0  4 0.4 0  4.2 0.4 0  4.4 0.4 0  4.6 0.4 0  4.8 0.4 0  5 0.4 0  5.2 0.4 0  5.4 0.4 0  5.6 0.4 0  5.8 0.4 0  6 0.4 0  6.2 0.4 0  6.4 0.4 0  6.6 0.4 0  6.8 0.4 0  7 0.4 0  7.2 0.4 0  7.4 0.4 0  7.6 0.4 0  7.8 0.4 0  8 0.4 0  8.199999999999999 0.4 0  8.4 0.4 0  8.6 0.4 0  8.800000000000001 0.4 0  9 0.4 0  9.199999999999999 0.4 0  9.4 0.4 0  9.6 0.4 0  9.800000000000001 0.4 0  10 0.4 0  0 0.6 0  0.2 0.6 0  0.4 0.6 0  0.6 0.6 0  0.8 0.6 0  1 0.6 0  1.2 0.6 0  1.4 0.6 0  1.6 0.6 0  1.8 0.6 0  2 0.6 0  2.2 0.6 0  2.4 0.6 0  2.6 0.6 0  2.8 0.6 0  3 0.6 0  3.2 0.6 0  3.4 0.6 0  3.6 0.6 0  3.8 0.6 0  4 0.6 0  4.2 0.6 0  4.4 0.6 0  4.6 0.6 0  4.8 0.6 0  5 0.6 0  5.2 0.6 0  5.4 0.6 0  5.6 0.6 0  5.8 0.6 0  6 0.6 0  6.2 0.6 0  6.4 0.6 0  6.6 0.6 0  6.8 0.6 0  7 0.6 0  7.2 0.6 0  7.4 0.6 0  7.6 0.6 0  7.8 0.6 0  8 0.6 0  8.199999999999999 0.6 0  8.4 0.6 0  8.6 0.6 0  8.800000000000001 0.6 0  9 0.6 0  9.199999999999999 0.6 0  9.4 0.6 0  9.6 0.6 0  9.800000000000001 0.6 0  10 0.6 0  0 0.8 0  0.2 0.8 0  0.4 0.8 0  0.6 0.8 0  0.8 0.8 0  1 0.8 0  1.2 0.8 0  1.4 0.8 0  1.6 0.8 0  1.8 0.8 0  2 0.8 0  2.2 0.8 0  2.4 0.8 0  2.6 0.8 0  2.8 0.8 0  3 0.8 0  3.2 0.8 0  3.4 0.8 0  3.6 0.8 0  3.8 0.8 0  4 0.8 0  4.2 0.8 0  4.4 0.8 0  4.6 0.8 0  4.8 0.8 0  5 0.8 0  5.2 0.8 0  5.4 0.8 0  5.6 0.8 0  5.8 0.8 0  6 0.8 0  6.2 0.8 0  6.4 0.8 0  6.6 0.8 0  6.8 0.8 0  7 0.8 0  7.2 0.8 0  7.4 0.8 0  7.6 0.8 0  7.8 0.8 0  8 0.8 0  8.199999999999999 0.8 0  8.4 0.8 0  8.6 0.8 0  8.800000000000001 0.8 0  9 0.8 0  9.199999999999999 0.8 0  9.4 0.8 0  9.6 0.8 0  9.800000000000001 0.8 0  10 0.8 0  0 1 0  0.2 1 0  0.4 1 0  0.6 1 0  0.8 1 0  1 1 0  1.2 1 0  1.4 1 0  1.6 1 0  1.8 1 0  2 1 0  2.2 1 0  2.4 1 0  2.6 1 0  2.8 1 0  3 1 0  3.2 1 0  3.4 1 0  3.6 1 0  3.8 1 0  4 1 0  4.2 1 0  4.4 1 0  4.6 1 0  4.8 1 0  5 1 0  5.2 1 0  5.4 1 0  5.6 1 0  5.8 1 0  6 1 0  6.2 1 0  6.4 1 0  6.6 1 0  6.8 1 0  7 1 0  7.2 1 0  7.4 1 0  7.6 1 0  7.8 1 0  8 1 0  8.199999999999999 1 0  8.4 1 0  8.6 1 0  8.800000000000001 1 0  9 1 0  9.199999999999999 1 0  9.4 1 0  9.6 1 0  9.800000000000001 1 0  10 1 0  0 1.2 0  0.2 1.2 0  0.4 1.2 0  0.6 1.2 0  0.8 1.2 0  1 1.2 0  1.2 1.2 0  1.4 1.2 0  1.6 1.2 0  1.8 1.2 0  2 1.2 0  2.2 1.2 0  2.4 1.2 0  2.6 1.2 0  2.8 1.2 0  3 1.2 0  3.2 1.2 0  3.4 1.2 0  3.6 1.2 0  3.8 1.2 0  4 1.2 0  4.2 1.2 0  4.4 1.2 0  4.6 1.2 0  4.8 1.2 0  5 1.2 0  5.2 1.2 0  5.4 1.2 0  5.6 1.2 0  5.8 1.2 0  6 1.2 0  6.2 1.2 0  6.4 1.2 0  6.6 1.2 0  6.8 1.2 0  7 1.2 0  7.2 1.2 0  7.4 1.2 0  7.6 1.2 0  7.8 1.2 0  8 1.2 0  8.199999999999999 1.2 0  8.4 1.2 0  8.6 1.2 0  8.800000000000001 1.2 0  9 1.2 0  9.199999999999999 1.2 0  9.4 1.2 0  9.6 1.2 0  9.800000000000001 1.2 0  10 1.2 0  0 1.4 0  0.2 1.4 0  0.4 1.4 0  0.6 1.4 0  0.8 1.4 0  1 1.4 0  1.2 1.4 0  1.4 1.4 0  1.6 1.4 0  1.8 1.4 0  2 1.4 0  2.2 1.4 0  2.4 1.4 0  2.6 1.4 0  2.8 1.4 0  3 1.4 0  3.2 1.4 0  3.4 1.4 0  3.6 1.4 0  3.8 1.4 0  4 1.4 0  4.2 1.4 0  4.4 1.4 0  4.6 1.4 0  4.8 1.4 0  5 1.4 0  5.2 1.4 0  5.4 1.4 0  5.6 1.4 0  5.8 1.4 0  6 1.4 0  6.2 1.4 0  6.4 1.4 0  6.6 1.4 0  6.8 1.4 0  7 1.4 0  7.2 1.4 0  7.4 1.4 0  7.6 1.4 0  7.8 1.4 0  8 1.4 0  8.199999999999999 1.4 0  8.4 1.4 0  8.6 1.4 0  8.800000000000001 1.4 0  9 1.4 0  9.199999999999999 1.4 0  9.4 1.4 0  9.6 1.4 0  9.800000000000001 1.4 0  10 1.4 0  0 1.6 0  0.2 1.6 0  0.4 1.6 0  0.6 1.6 0  0.8 1.6 0  1 1.6 0  1.2 1.6 0  1.4 1.6 0  1.6 1.6 0  1.8 1.6 0  2 1.6 0  2.2 1.6 0  2.4 1.6 0  2.6 1.6 0  2.8 1.6 0  3 1.6 0  3.2 1.6 0  3.4 1.6 0  3.6 1.6 0  3.8 1.6 0  4 1.6 0  4.2 1.6 0  4.4 1.6 0  4.6 1.6 0  4.8 1.6 0  5 1.6 0  5.2 1.6 0  5.4 1.6 0  5.6 1.6 0  5.8 1.6 0  6 1.6 0  6.2 1.6 0  6.4 1.6 0  6.6 1.6 0  6.8 1.6 0  7 1.6 0  7.2 1.6 0  7.4 1.6 0  7.6 1.6 0  7.8 1.6 0  8 1.6 0  8.199999999999999 1.6 0  8.4 1.6 0  8.6 1.6 0  8.800000000000001 1.6 0  9 1.6 0  9.199999999999999 1.6 0  9.4 1.6 0  9.6 1.6 0  9.800000000000001 1.6 0  10 1.6 0  0 1.8 0  0.2 1.8 0  0.4 1.8 0  0.6 1.8 0  0.8 1.8 0  1 1.8 0  1.2 1.8 0  1.4 1.8 0  1.6 1.8 0  1.8 1.8 0  2 1.8 0  2.2 1.8 0  2.4 1.8 0  2.6 1.8 0  2.8 1.8 0  3 1.8 0  3.2 1.8 0  3.4 1.8 0  3.6 1.8 0  3.8 1.8 0  4 1.8 0  4.2 1.8 0  4.4 1.8 0  4.6 1.8 0  4.8 1.8 0  5 1.8 0  5.2 1.8 0  5.4 1.8 0  5.6 1.8 0  5.8 1.8 0  6 1.8 0  6.2 1.8 0  6.4 1.8 0  6.6 1.8 0  6.8 1.8 0  7 1.8 0  7.2 1.8 0  7.4 1.8 0  7.6 1.8 0  7.8 1.8 0  8 1.8 0  8.199999999999999 1.8 0  8.4 1.8 0  8.6 1.8 0  8.800000000000001 1.8 0  9 1.8 0  9.199999999999999 1.8 0  9.4 1.8 0  9.6 1.8 0  9.800000000000001 1.8 0  10 1.8 0  0 2 0  0.2 2 0  0.4 2 0  0.6 2 0  0.8 2 0  1 2 0  1.2 2 0  1.4 2 0  1.6 2 0  1.8 2 0  2 2 0  2.2 2 0  2.4 2 0  2.6 2 0  2.8 2 0  3 2 0  3.2 2 0  3.4 2 0  3.6 2 0  3.8 2 0  4 2 0  4.2 2 0  4.4 2 0  4.6 2 0  4.8 2 0  5 2 0  5.2 2 0  5.4 2 0  5.6 2 0  5.8 2 0  6 2 0  6.2 2 0  6.4 2 0  6.6 2 0  6.8 2 0  7 2 0  7.2 2 0  7.4 2 0  7.6 2 0  7.8 2 0  8 2 0  8.199999999999999 2 0  8.4 2 0  8.6 2 0  8.800000000000001 2 0  9 2 0  9.199999999999999 2 0  9.4 2 0  9.6 2 0  9.800000000000001 2 0  10 2 0  0 2.2 0  0.2 2.2 0  0.4 2.2 0  0.6 2.2 0  0.8 2.2 0  1 2.2 0  1.2 2.2 0  1.4 2.2 0  1.6 2.2 0  1.8 2.2 0  2 2.2 0  2.2 2.2 0  2.4 2.2 0  2.6 2.2 0  2.8 2.2 0  3 2.2 0  3.2 2.2 0  3.4 2.2 0  3.6 2.2 0  3.8 2.2 0  4 2.2 0  4.2 2.2 0  4.4 2.2 0  4.6 2.2 0  4.8 2.2 0  5 2.2 0  5.2 2.2 0  5.4 2.2 0  5.6 2.2 0  5.8 2.2 0  6 2.2 0  6.2 2.2 0  6.4 2.2 0  6.6 2.2 0  6.8 2.2 0  7 2.2 0  7.2 2.2 0  7.4 2.2 0  7.6 2.2 0  7.8 2.2 0  8 2.2 0  8.199999999999999 2.2 0  8.4 2.2 0  8.6 2.2 0  8.800000000000001 2.2 0  9 2.2 0  9.199999999999999 2.2 0  9.4 2.2 0  9.6 2.2 0  9.800000000000001 2.2 0  10 2.2 0  0 2.4 0  0.2 2.4 0  0.4 2.4 0  0.6 2.4 0  0.8 2.4 0  1 2.4 0  1.2 2.4 0  1.4 2.4 0  1.6 2.4 0  1.8 2.4 0  2 2.4 0  2.2 2.4 0  2.4 2.4 0  2.6 2.4 0  2.8 2.4 0  3 2.4 0  3.2 2.4 0  3.4 2.4 0  3.6 2.4 0  3.8 2.4 0  4 2.4 0  4.2 2.4 0  4.4 2.4 0  4.6 2.4 0  4.8 2.4 0  5 2.4 0  5.2 2.4 0  5.4 2.4 0  5.6 2.4 0  5.8 2.4 0  6 2.4 0  6.2 2.4 0  6.4 2.4 0  6.6 2.4 0  6.8 2.4 0  7 2.4 0  7.2 2.4 0  7.4 2.4 0  7.6 2.4 0  7.8 2.4 0  8 2.4 0  8.199999999999999 2.4 0  8.4 2.4 0  8.6 2.4 0  8.800000000000001 2.4 0  9 2.4 0  9.199999999999999 2.4 0  9.4 2.4 0  9.6 2.4 0  9.800000000000001 2.4 0  10 2.4 0  0 2.6 0  0.2 2.6 0  0.4 2.6 0  0.6 2.6 0  0.8 2.6 0  1 2.6 0  1.2 2.6 0  1.4 2.6 0  1.6 2.6 0  1.8 2.6 0  2 2.6 0  2.2 2.6 0  2.4 2.6 0  2.6 2.6 0  2.8 2.6 0  3 2.6 0  3.2 2.6 0  3.4 2.6 0  3.6 2.6 0  3.8 2.6 0  4 2.6 0  4.2 2.6 0  4.4 2.6 0  4.6 2.6 0  4.8 2.6 0  5 2.6 0  5.2 2.6 0  5.4 2.6 0  5.6 2.6 0  5.8 2.6 0  6 2.6 0  6.2 2.6 0  6.4 2.6 0  6.6 2.6 0  6.8 2.6 0  7 2.6 0  7.2 2.6 0  7.4 2.6 0  7.6 2.6 0  7.8 2.6 0  8 2.6 0  8.199999999999999 2.6 0  8.4 2.6 0  8.6 2.6 0  8.800000000000001 2.6 0  9 2.6 0  9.199999999999999 2.6 0  9.4 2.6 0  9.6 2.6 0  9.800000000000001 2.6 0  10 2.6 0  0 2.8 0  0.2 2.8 0  0.4 2.8 0  0.6 2.8 0  0.8 2.8 0  1 2.8 0  1.2 2.8 0  1.4 2.8 0  1.6 2.8 0  1.8 2.8 0  2 2.8 0  2.2 2.8 0  2.4 2.8 0  2.6 2.8 0  2.8 2.8 0  3 2.8 0  3.2 2.8 0  3.4 2.8 0  3.6 2.8 0  3.8 2.8 0  4 2.8 0  4.2 2.8 0  4.4 2.8 0  4.6 2.8 0  4.8 2.8 0  5 2.8 0  5.2 2.8 0  5.4 2.8 0  5.6 2.8 0  5.8 2.8 0  6 2.8 0  6.2 2.8 0  6.4 2.8 0  6.6 2.8 0  6.8 2.8 0  7 2.8 0  7.2 2.8 0  7.4 2.8 0  7.6 2.8 0  7.8 2.8 0  8 2.8 0  8.199999999999999 2.8 0  8.4 2.8 0  8.6 2.8 0  8.800000000000001 2.8 0  9 2.8 0  9.199999999999999 2.8 0  9.4 2.8 0  9.6 2.8 0  9.800000000000001 2.8 0  10 2.8 0  0 3 0  0.2 3 0  0.4 3 0  0.6 3 0  0.8 3 0  1 3 0  1.2 3 0  1.4 3 0  1.6 3 0  1.8 3 0  2 3 0  2.2 3 0  2.4 3 0  2.6 3 0  2.8 3 0  3 3 0  3.2 3 0  3.4 3 0  3.6 3 0  3.8 3 0  4 3 0  4.2 3 0  4.4 3 0  4.6 3 0  4.8 3 0  5 3 0  5.2 3 0  5.4 3 0  5.6 3 0  5.8 3 0  6 3 0  6.2 3 0  6.4 3 0  6.6 3 0  6.8 3 0  7 3 0  7.2 3 0  7.4 3 0  7.6 3 0  7.8 3 0  8 3 0  8.199999999999999 3 0  8.4 3 0  8.6 3 0  8.800000000000001 3 0  9 3 0  9.199999999999999 3 0  9.4 3 0  9.6 3 0  9.800000000000001 3 0  10 3 0  0 3.2 0  0.2 3.2 0  0.4 3.2 0  0.6 3.2 0  0.8 3.2 0  1 3.2 0  1.2 3.2 0  1.4 3.2 0  1.6 3.2 0  1.8 3.2 0  2 3.2 0  2.2 3.2 0  2.4 3.2 0  2.6 3.2 0  2.8 3.2 0  3 3.2 0  3.2 3.2 0  3.4 3.2 0  3.6 3.2 0  3.8 3.2 0  4 3.2 0  4.2 3.2 0  4.4 3.2 0  4.6 3.2 0  4.8 3.2 0  5 3.2 0  5.2 3.2 0  5.4 3.2 0  5.6 3.2 0  5.8 3.2 0  6 3.2 0  6.2 3.2 0  6.4 3.2 0  6.6 3.2 0  6.8 3.2 0  7 3.2 0  7.2 3.2 0  7.4 3.2 0  7.6 3.2 0  7.8 3.2 0  8 3.2 0  8.199999999999999 3.2 0  8.4 3.2 0  8.6 3.2 0  8.800000000000001 3.2 0  9 3.2 0  9.199999999999999 3.2 0  9.4 3.2 0  9.6 3.2 0  9.800000000000001 3.2 0  10 3.2 0  0 3.4 0  0.2 3.4 0  0.4 3.4 0  0.6 3.4 0  0.8 3.4 0  1 
[...]
<PointData  Scalars="f_9"> 
<DataArray  type="Float64"  Name="f_9"  format="ascii">-2.1198378130558326e-03  2.1342782008736943e-04  -2.1614287546522803e-06  4.4399783458120953e-08  -2.8110878243226009e-09  3.4179316241427646e-11  -1.5421514369326481e-12  2.1627445927902002e-14  -8.0958894102534099e-16  -1.9962330399803102e-17  -3.2627980178778770e-17  -3.1086244689504386e-17  -3.1897227914523545e-17  -3.4200073328882758e-17  -3.3775066077268426e-17  -3.2875178274105456e-17  -3.1643524606161934e-17  -3.1203338524132819e-17  -3.4275967480956730e-17  -3.3725192777334113e-17  -3.1146960011163568e-17  -2.7909532324121869e-17  -3.0953972024461145e-17  -3.3508352342837006e-17  -3.6732769603808891e-17  -3.2745074013407197e-17  -2.8056983819579887e-17  -3.0806520529003122e-17  -3.3330543186549391e-17  -3.6717590773394102e-17  -3.2810126143756336e-17  -2.8037468180475147e-17  -3.0784836485553413e-17  -3.3393426912553543e-17  -3.6719759177739071e-17  -3.2734231991682345e-17  -2.8020120945715383e-17  -3.1320432358761245e-17  -3.3731697990369021e-17  -3.6277404691364981e-17  -3.5991175317828809e-17  -4.5302303575134321e-17  7.4071174541168180e-16  -2.1684169217162101e-14  1.5421437911389280e-12  -3.4179320797245160e-11  2.8110878332932894e-09  -4.4399783461048293e-08  2.1614287546528939e-06  -2.1342782008737664e-04  2.1198378130557905e-03  -9.3393145089019428e-03  -3.8320831769190686e-04  -9.7019648733950769e-06  -1.0032776001045640e-07  -6.0773851813002260e-10  1.3795425184148802e-11  -8.9846998764520009e-13  3.7421324719510977e-14  -1.2497902018848706e-15  1.8336027141074849e-16  1.4175292883944480e-16  1.4166619266564599e-16  1.4344428422852215e-16  1.4493614641786228e-16  1.4687903671095628e-16  1.4383459701061692e-16  1.4152741478756782e-16  1.4354836763708074e-16  1.4479736853978406e-16  1.4655811286790057e-16  1.4066872666695934e-16  1.3916819086023934e-16  1.4003555259822772e-16  1.4761629418824640e-16  1.4825814187435780e-16  1.4329683273306416e-16  1.3960187172923349e-16  1.3976667045945134e-16  1.4764231504038608e-16  1.4799793335296124e-16  1.4311468676808663e-16  1.3954983002495423e-16  1.3994014280704901e-16  1.4764231504038608e-16  1.4811069037889981e-16  1.4314070762022629e-16  1.3957585087709391e-16  1.4001820536346799e-16  1.4745149545802855e-16  1.4820610017007844e-16  1.4528309111305752e-16  1.1108301778417484e-16  1.5352389498568542e-15  -3.7143959782937046e-14  8.9871351680037581e-13  -1.3795180518749750e-11  6.0773877632626359e-10  1.0032776024453126e-07  9.7019648735882563e-06  3.8320831769212625e-04  9.3393145089020659e-03  -9.4910986423755693e-03  -3.4293564179791190e-04  -1.5351541313706651e-05  8.3583856522097840e-09  -4.6288898408394802e-09  1.3304790030116418e-10  -4.3933491133268934e-12  1.3178407150260522e-13  -3.8939598073772772e-15  2.3736221321790649e-16  1.3160479650498044e-16  1.3724264780190506e-16  1.3582017455160409e-16  1.3559466049972711e-16  1.3465790982269968e-16  1.3529108389143123e-16  1.3712121715858679e-16  1.3581150093422424e-16  1.3555996603020761e-16  1.3457984726628074e-16  1.3627120265535809e-16  1.3569007029090582e-16  1.3653141117675467e-16  1.3459719450104049e-16  1.3482270855291749e-16  1.3537782006523006e-16  1.3573343837780530e-16  1.3614977201203980e-16  1.3458852088366054e-16  1.3477934046601806e-16  1.3537782006523009e-16  1.3572476476042538e-16  1.3619314009893918e-16  1.3458852088366057e-16  1.3480536131815772e-16  1.3525638942191165e-16  1.3582884816898402e-16  1.3615844562941965e-16  1.3462321535318020e-16  1.3482270855291749e-16  1.3860440573054690e-16  3.2829641782861039e-17  4.1610118128865286e-15  -1.3151330718885752e-13  4.3936083677503784e-12  -1.3304766665125921e-10  4.6288900883758453e-09  -8.3583854205201241e-09  1.5351541313984616e-05  3.4293564179817623e-04  9.4910986423756734e-03  -9.5007800355374778e-03  -3.3504487191419248e-04  -1.6143413055744608e-05  3.4527222021367716e-08  -6.0540577005458600e-09  1.7792608308572762e-10  -5.6574233665840361e-12  1.6947610849415981e-13  -4.5848828206240820e-15  2.4790065833446562e-16  1.2271433869059932e-16  1.2846494701346244e-16  1.2653940395512816e-16  1.2816137040516650e-16  1.2613174393827366e-16  1.2666083459844657e-16  1.2834351637014407e-16  1.2668685545058620e-16  1.2795320358804925e-16  1.2604500776447480e-16  1.2696441120674251e-16  1.2880321809127793e-16  1.2851698871774174e-16  1.2408477023662106e-16  1.2433630514063767e-16  1.2640062607705004e-16  1.2888995426507674e-16  1.2844759977870271e-16  1.2398936044544225e-16  1.2436232599277730e-16  1.2634858437277081e-16  1.2879454447389805e-16  1.2851698871774179e-16  1.2396333959330260e-16  1.2437099961015722e-16  1.2642664692918972e-16  1.2885525979555723e-16  1.2855168318726135e-16  1.2388527703688366e-16  1.2441436769705665e-16  1.2991344111590311e-16  2.7929047963226530e-18  4.8352294390596734e-15  -1.6922567513955043e-13  5.6576801316793339e-12  -1.7792584001627424e-10  6.0540579050524103e-09  -3.4527221751115217e-08  1.6143413056037312e-05  3.3504487191440862e-04  9.5007800355375645e-03  -9.5008641391142595e-03  -3.3451392497050100e-04  -1.6185544205741284e-05  3.7595937989352513e-08  -6.1913464525099169e-09  1.8246634704045806e-10  -5.8053676275926516e-12  1.7240763504344781e-13  -4.6727292174475449e-15  2.5549874715924403e-16  1.2615776479041331e-16  1.2981803132472432e-16  1.3013028155040021e-16  1.2998283005494217e-16  1.3042518454131625e-16  1.2982670494210420e-16  1.2993946196804276e-16  1.3031242751537776e-16  1.2984405217686400e-16  1.3026038581109850e-16  1.2946241301214908e-16  1.2847362063084234e-16  1.2843025254394291e-16  1.2981803132472432e-16  1.2960986450760710e-16  1.2915883640385319e-16  1.2846494701346244e-16  1.2839555807442343e-16  1.2980068408996455e-16  1.2964455897712663e-16  1.2915883640385322e-16  1.2846494701346244e-16  1.2842157892656308e-16  1.2967925344664623e-16  1.2969660068140596e-16  1.2923689896027210e-16  1.2858637765678085e-16  1.2846494701346249e-16  1.2961853812498702e-16  1.2968792706402611e-16  1.3243746377344936e-16  4.2500725161431916e-18  4.9322091549841580e-15  -1.7214969033618742e-13  5.8056238896181388e-12  -1.8246609336317052e-10  6.1913467215915509e-09  -3.7595937707034936e-08  1.6185544206000815e-05  3.3451392497072674e-04  9.5008641391143532e-03  -9.5008676120562179e-03  -3.3448938174304976e-04  -1.6188183884252251e-05  3.7775364503302818e-08  -6.1992608373258322e-09  1.8275996740285680e-10  -5.8123582856450793e-12  1.7261590594397353e-13  -4.6822268284785186e-15  2.4849046431629774e-16  1.2011225347663419e-16  1.2388527703688369e-16  1.2427558981897844e-16  1.2397201321068250e-16  1.2426691620159866e-16  1.2340822808099003e-16  1.2387660341950384e-16  1.2424956896683881e-16  1.2409344385400091e-16  1.2398068682806240e-16  1.2316536679435335e-16  1.2304393615103489e-16  1.2348629063740904e-16  1.2330414467243145e-16  1.2371180468928599e-16  1.2326077658553206e-16  1.2323475573339236e-16  1.2320006126387293e-16  1.2348629063740902e-16  1.2357302681120790e-16  1.2341690169836988e-16  1.2332149190719125e-16  1.2326945020291197e-16  1.2372047830666592e-16  1.2366843660238659e-16  1.2308730423793437e-16  1.2336485999409063e-16  1.2322608211601258e-16  1.2342557531574986e-16  1.2354700595906822e-16  1.2658277204202756e-16  -2.0643209364124277e-18  4.9290259374057397e-15  -1.7236787518137839e-13  5.8125811195491892e-12  -1.8275970033350408e-10  6.1992611229567256e-09  -3.7775364259790977e-08  1.6188183884499717e-05  3.3448938174326210e-04  9.5008676120563358e-03  -9.5008676197096721e-03  -3.3448838638556918e-04  -1.6188301706658353e-05  3.7783572715719943e-08  -6.1996322727343059e-09  1.8277121184573364e-10  -5.8126890106757733e-12  1.7263096334374502e-13  -4.6741256698457076e-15  2.5721612340046113e-16  1.2955782280332782e-16  1.3250685271248842e-16  1.3399871490182845e-16  1.3268899867746594e-16  1.3354768679807444e-16  1.3309665869432056e-16  1.3267165144270624e-16  1.3390330511064976e-16  1.3258491526890738e-16  1.3373850638043197e-16  1.3299257528576190e-16  1.3354768679807447e-16  1.3318339486811937e-16  1.3281910293816426e-16  1.3225531780847179e-16  1.3279308208602465e-16  1.3377320084995152e-16  1.3307063784218084e-16  1.3298390166838203e-16  1.3218592886943273e-16  1.3274104038174537e-16  1.3376452723257162e-16  1.3296655443362227e-16  1.3304461699004123e-16  1.3227266504323154e-16  1.3267165144270624e-16  1.3366044382401303e-16  1.3273236676436540e-16  1.3271501952960567e-16  1.3202980375659481e-16  1.3474464599649846e-16  6.9215466691475123e-18  4.9368408666650146e-15  -1.7235278308713743e-13  5.8129628714709276e-12  -1.8277095010198196e-10  6.1996325296988929e-09  -3.7783572438597874e-08  1.6188301706910169e-05  3.3448838638576813e-04  9.5008676197097658e-03  -9.5008676217074525e-03  -3.3448835062432718e-04  -1.6188306307388394e-05  3.7783876638457532e-08  -6.1996446084657015e-09  1.8277163489274774e-10  -5.8126982827727568e-12  1.7262705154230673e-13  -4.6679153598017115e-15  2.6374735728751369e-16  1.3635793882915690e-16  1.3900339213002154e-16  1.4050392793674150e-16  1.3830950273963086e-16  1.4027841388486452e-16  1.3943707299901580e-16  1.3889930872146301e-16  1.4047790708460189e-16  1.3831817635701074e-16  1.4015698324154611e-16  1.3935901044259681e-16  1.4134526882259027e-16  1.3983605939849044e-16  1.3850032232198831e-16  1.3739009929736310e-16  1.3925492703403817e-16  1.4146669946590861e-16  1.3969728152041233e-16  1.3852634317412796e-16  1.3736407844522345e-16  1.3918553809499909e-16  1.4158813010922700e-16  1.3975799684207151e-16  1.3851766955674804e-16  1.3745081461902228e-16  1.3920288532975884e-16  1.4136261605735003e-16  1.3984473301587030e-16  1.3838756529604982e-16  1.3701713375002813e-16  1.4073811560599830e-16  1.3669620990697241e-17  4.9439272120643823e-15  -1.7234909679975098e-13  5.8129699231218581e-12  -1.8277137986237597e-10  6.1996448765498658e-09  -3.7783876377919449e-08  1.6188306307655121e-05  3.3448835062453806e-04  9.5008676217075653e-03  -9.5008676217212748e-03  -3.3448834945468749e-04  -1.6188306456920175e-05  3.7783885928170706e-08  -6.1996450013892402e-09  1.8277164692305494e-10  -5.8127034175542440e-12  1.7259939137648219e-13  -4.6626244531999811e-15  2.6563820587632841e-16  1.3837021806129009e-16  1.4092026157097605e-16  1.4150139393542817e-16  1.3902941298216117e-16  1.4043453899770237e-16  1.3969728152041235e-16  1.4092893518835580e-16  1.4129322711831094e-16  1.3921155894713879e-16  1.4008759430250705e-16  1.4084219901455701e-16  1.4040851814556281e-16  1.3950646193805478e-16  1.4026106665010474e-16  1.3902073936478132e-16  1.4007024706774730e-16  1.4077281007551791e-16  1.3950646193805480e-16  1.4021769856320529e-16  1.3910747553858023e-16  1.3994881642442891e-16  1.4074678922337820e-16  1.3941105214687612e-16  1.4011361515464668e-16  1.3909012830382043e-16  1.3994881642442893e-16  1.4071209475385872e-16  1.3942839938163587e-16  1.4002687898084792e-16  1.3888196148670320e-16  1.4159680372660693e-16  1.3947176746853534e-17  4.9432766907608894e-15  -1.7231975395215484e-13  5.8129679889051804e-12  -1.8277138851864602e-10  6.1996452617972527e-09  -3.7783885662220201e-08  1.6188306457177772e-05  3.3448834945490661e-04  9.5008676217213772e-03  -9.5008676217224960e-03  -3.3448834942020542e-04  -1.6188306461213806e-05  3.7783886182576581e-08  -6.1996450075475072e-09  1.8277164609038774e-10  -5.8127030966304000e-12  1.7259899239008280e-13  -4.6631708910949155e-15  2.6393817686987121e-16  1.3771969675779862e-16  1.3937635767735656e-16  1.4268967951647221e-16  1.3920288532975887e-16  1.4235140843865674e-16  1.3990544833752945e-16  1.3951513555543468e-16  1.4282845739455033e-16  1.3925492703403822e-16  1.4250753355149471e-16  1.3928962150355770e-16  1.4059933772792026e-16  1.3994014280704906e-16  1.3954115640757441e-16  1.3718193248024590e-16  1.3843093338294923e-16  1.4055596964102076e-16  1.4016565685892596e-16  1.3939370491211641e-16  1.3754622441020102e-16  1.3857838487840729e-16  1.4058199049316048e-16  1.4025239303272482e-16  1.3945442023377557e-16  1.3741612014950280e-16  1.3855236402626762e-16  1.4067740028433914e-16  1.4002687898084784e-16  1.3958452449447386e-16  1.3709519630644714e-16  1.4038249729342316e-16  1.5673226605450446e-17  4.9422705511448214e-15  -1.7232162745350887e-13  5.8129662715289412e-12  -1.8277138903038945e-10  6.1996452723270253e-09  -3.7783885916929797e-08  1.6188306461476338e-05  3.3448834942042356e-04  9.5008676217226053e-03  -9.5008676217225117e-03  -3.3448834941927734e-04  -1.6188306461322961e-05  3.7783886188405161e-08  -6.1996450082934413e-09  1.8277164549190820e-10  -5.8127036951099996e-12  1.7259922657775205e-13  -4.6643158085890599e-15  2.6228151595031329e-16  1.3564670220400647e-16  1.3685233501981029e-16  1.4218660970843900e-16  1.3872583637386531e-16  1.4259426972529360e-16  1.4016565685892603e-16  1.3670488352435227e-16  1.4213456800415974e-16  1.3879522531290434e-16  1.4287182548144986e-16  1.3763296058399983e-16  1.3943707299901580e-16  1.3891665595622268e-16  1.3664416820269311e-16  1.3596762604706216e-16  1.3811000953989346e-16  1.3933298959045718e-16  1.3869114190434573e-16  1.3661814735055341e-16  1.3608905669038057e-16  1.3790184272277634e-16  1.3941105214687617e-16  1.3863042658268657e-16  1.3660947373317353e-16  1.3591558434278290e-16  1.3798857889657517e-16  1.3953248279019453e-16  1.3846562785246878e-16  1.3652273755937470e-16  1.3604568860348112e-16  1.3977534407683126e-16  1.8882465036007529e-17  4.9421664677362661e-15  -1.7232210450246476e-13  5.8129646755833426e-12  -1.8277138974162607e-10  6.1996452743479773e-09  -3.7783885923356852e-08  1.6188306461586622e-05  3.3448834941949673e-04  9.5008676217226244e-03  -9.5008676217225082e-03  -3.3448834941925088e-04  -1.6188306461325228e-05  3.7783886188708716e-08  -6.1996450081286396e-09  1.8277164499751199e-10  -5.8127047966594065e-12  1.7259793420876246e-13  -4.6613234105929970e-15  2.6655760931859617e-16  1.4370449274991875e-16  1.4760762057086655e-16  1.4988878194177599e-16  1.4859641295217327e-16  1.4929897595994395e-16  1.4869182274335200e-16  1.4750353716230788e-16  1.4982806662011681e-16  1.4877855891715086e-16  1.4924693425566457e-16  1.4760762057086655e-16  1.4746884269278833e-16  1.4697444650213497e-16  1.4639331413768273e-16  1.4517033408711911e-16  1.4587289709488967e-16  1.4759894695348662e-16  1.4698312011951482e-16  1.4653209201576087e-16  1.4488410471358295e-16  1.4559534133873343e-16  1.4746884269278828e-16  1.4708720352807341e-16  1.4670556436335854e-16  1.4517033408711915e-16  1.4564738304301279e-16  1.4751221077968781e-16  1.4710455076283334e-16  1.4649739754624131e-16  1.4511829238283977e-16  1.4823212102221825e-16  2.1892210266827369e-17  4.9437971078036820e-15  -1.7232204378714314e-13  5.8129653607991157e-12  -1.8277138937733415e-10  6.1996452731596918e-09  -3.7783885923512865e-08  1.6188306461588452e-05  3.3448834941947114e-04  9.5008676217226192e-03  -9.5008676217225099e-03  -3.3448834941925354e-04  -1.6188306461325401e-05  3.7783886188734802e-08  -6.1996450077556763e-09  1.8277164485006053e-10  -5.8127052043194255e-12  1.7259731838192849e-13  -4.6624856753219047e-15  2.6326163471424023e-16  1.3623650818583854e-16  1.3936768405997671e-16  1.4230804035175739e-16  1.3833552359177046e-16  1.4020902494582541e-16  1.3959319811185371e-16  1.3906410745168070e-16  1.4235140843865684e-16  1.3832684997439056e-16  1.3997483727656854e-16  1.3998351089394846e-16  1.3853501679150781e-16  1.3784112740111711e-16  1.3796255804443554e-16  1.3632324435963742e-16  1.3783245378373725e-16  1.3886461425194345e-16  1.3748550908854189e-16  1.3784112740111720e-16  1.3662682096793334e-16  1.3791918995753602e-16  1.3888196148670325e-16  1.3760693973186028e-16  1.3804929421823435e-16  1.3640130691605638e-16  1.3767632867089929e-16  1.3871716275648536e-16  1.3763296058399986e-16  1.3794521080967567e-16  1.3627120265535812e-16  1.3895135042574224e-16  1.5907414274707349e-17  4.9421404468841243e-15  -1.7232222593310801e-13  5.8129673297102613e-12  -1.8277138966356359e-10  6.1996452711213939e-09  -3.7783885923617030e-08  1.6188306461589133e-05  3.3448834941947580e-04  9.5008676217226227e-03  -9.5008676217225117e-03  -3.3448834941925332e-04  -1.6188306461323967e-05  3.7783886188422591e-08  -6.1996450078944515e-09  1.8277164485873414e-10  -5.8127051349304864e-12  1.7259817707004909e-13  -4.6620606680702898e-15  2.6524789309423369e-16  1.4195242203918212e-16  1.4544788984327544e-16  1.4874386444763128e-16  1.4628055711174429e-16  1.4847498230885490e-16  1.4524839664353802e-16  1.4531778558257712e-16  1.4892601041260883e-16  1.4622851540746483e-16  1.4863110742169277e-16  1.4591626518178917e-16  1.4493614641786223e-16  1.4425093064485145e-16  1.4374786083681806e-16  1.4178762330896428e-16  1.4341826337638250e-16  1.4519635493925881e-16  1.4420756255795194e-16  1.4355704125446069e-16  1.4177027607420450e-16  1.4314070762022626e-16  1.4523104940877836e-16  1.4416419447105251e-16  1.4364377742825947e-16  1.4170956075254529e-16  1.4307131868118718e-16  1.4515298685235938e-16  1.4406878467987382e-16  1.4377388168895779e-16  1.4159680372660688e-16  1.4499686173952136e-16  2.1233015345956073e-17  4.9429644405352154e-15  -1.7232163612712626e-13  5.8129660460148887e-12  -1.8277138962019547e-10  6.1996452731163252e-09  -3.7783885923339508e-08  1.6188306461588858e-05  3.3448834941947461e-04  9.5008676217226227e-03  -9.5008676217225082e-03  -3.3448834941925023e-04  -1.6188306461326112e-05  3.7783886188995046e-08  -6.1996450076862866e-09  1.8277164472862987e-10  -5.8127053517709201e-12  1.7259658112445120e-13  -4.6616877025229561e-15  2.6415501730436831e-16  1.3601099413396154e-16  1.3915084362547954e-16  1.4010494153726692e-16  1.3901206574740145e-16  1.3901206574740145e-16  1.4016565685892606e-16  1.3925492703403815e-16  1.4018300409368581e-16  1.3950646193805483e-16  1.3872583637386531e-16  1.3986208025063017e-16  1.3791918995753604e-16  1.3747683547116201e-16  1.3719060609762578e-16  1.3627120265535809e-16  1.3730336312356432e-16  1.3815337762679287e-16  1.3721662694976546e-16  1.3694774481098905e-16  1.3606303583824084e-16  1.3739877291474298e-16  1.3792786357491592e-16  1.3758959249710043e-16  1.3708652268906722e-16  1.3615844562941958e-16  1.3744214100164251e-16  1.3813603039203309e-16  1.3739877291474300e-16  1.3683498778505054e-16  1.3608038307300067e-16  1.3907278106906070e-16  1.5812004483528609e-17  4.9414205366415939e-15  -1.7232224328034279e-13  5.8129673904255825e-12  -1.8277138959417464e-10  6.1996452708611819e-09  -3.7783885923382825e-08  1.6188306461588984e-05  3.3448834941947293e-04  9.5008676217226175e-03  -9.5008676217225151e-03  -3.3448834941925387e-04  -1.6188306461325221e-05  3.7783886188335797e-08  -6.1996450080419031e-09  1.8277164536180393e-10  -5.8127053170764489e-12  1.7259756991683257e-13  -4.6623729182959669e-15  2.6369531558323448e-16  1.3571609114304553e-16  1.3784980101849688e-16  1.4203915821298101e-16  1.3879522531290437e-16  1.4182231777848383e-16  1.4062535858005981e-16  1.3791918995753604e-16  1.4228201949961771e-16  1.3887328786932333e-16  1.4142333137900921e-16  1.3876053084338479e-16  1.3892532957360263e-16  1.3709519630644707e-16  1.3754622441020109e-16  1.3626252903797822e-16  1.3778908569683775e-16  1.3851766955674804e-16  1.3701713375002808e-16  1.3747683547116196e-16  1.3601966775134149e-16  1.3791051634015614e-16  1.3839623891342977e-16  1.3726866865404474e-16  1.3737275206260333e-16  1.3613242477727998e-16  1.3784112740111706e-16  1.3828348188749116e-16  1.3705182821954766e-16  1.3748550908854186e-16  1.3638395968129661e-16  1.3930696873831746e-16  1.7451318168326662e-17  4.9422965719969640e-15  -1.7232165347436099e-13  5.8129660807093591e-12  -1.8277138903906316e-10  6.1996452726045825e-09  -3.7783885923296104e-08  1.6188306461589431e-05  3.3448834941947488e-04  9.5008676217226262e-03  -9.5008676217225082e-03  -3.3448834941925018e-04  -1.6188306461325221e-05  3.7783886188630743e-08  -6.1996450081893563e-09  1.8277164519700513e-10  -5.8127