<?xml version="1.0"?>
<VTKFile type="UnstructuredGrid"  version="0.1"  >
<UnstructuredGrid>
<Piece  NumberOfPoints="2704" NumberOfCells="5202">
<Points>
<DataArray  type="Float64"  NumberOfComponents="3"  format="ascii">0 0 0  0.196078431372549 0 0  0.392156862745098 0 0  0.5882352941176471 0 0  0.7843137254901961 0 0  0.9803921568627451 0 0  1.176470588235294 0 0  1.372549019607843 0 0  1.568627450980392 0 0  1.764705882352941 0 0  1.96078431372549 0 0  2.156862745098039 0 0  2.352941176470588 0 0  2.549019607843137 0 0  2.745098039215686 0 0  2.941176470588236 0 0  3.137254901960784 0 0  3.333333333333333 0 0  3.529411764705882 0 0  3.725490196078431 0 0  3.92156862745098 0 0  4.117647058823529 0 0  4.313725490196078 0 0  4.509803921568627 0 0  4.705882352941177 0 0  4.901960784313726 0 0  5.098039215686274 0 0  5.294117647058823 0 0  5.490196078431373 0 0  5.686274509803922 0 0  5.882352941176471 0 0  6.078431372549019 0 0  6.274509803921569 0 0  6.470588235294118 0 0  6.666666666666667 0 0  6.862745098039215 0 0  7.058823529411764 0 0  7.254901960784314 0 0  7.450980392156863 0 0  7.647058823529412 0 0  7.84313725490196 0 0  8.03921568627451 0 0  8.235294117647058 0 0  8.431372549019608 0 0  8.627450980392156 0 0  8.823529411764707 0 0  9.019607843137255 0 0  9.215686274509803 0 0  9.411764705882353 0 0  9.607843137254902 0 0  9.803921568627452 0 0  10 0 0  0 0.196078431372549 0  0.196078431372549 0.196078431372549 0  0.392156862745098 0.196078431372549 0  0.5882352941176471 0.196078431372549 0  0.7843137254901961 0.196078431372549 0  0.9803921568627451 0.196078431372549 0  1.176470588235294 0.196078431372549 0  1.372549019607843 0.196078431372549 0  1.568627450980392 0.196078431372549 0  1.764705882352941 0.196078431372549 0  1.96078431372549 0.196078431372549 0  2.156862745098039 0.196078431372549 0  2.352941176470588 0.196078431372549 0  2.549019607843137 0.196078431372549 0  2.745098039215686 0.196078431372549 0  2.941176470588236 0.196078431372549 0  3.137254901960784 0.196078431372549 0  3.333333333333333 0.196078431372549 0  3.529411764705882 0.196078431372549 0  3.725490196078431 0.196078431372549 0  3.92156862745098 0.196078431372549 0  4.117647058823529 0.196078431372549 0  4.313725490196078 0.196078431372549 0  4.509803921568627 0.196078431372549 0  4.705882352941177 0.196078431372549 0  4.901960784313726 0.196078431372549 0  5.098039215686274 0.196078431372549 0  5.294117647058823 0.196078431372549 0  5.490196078431373 0.196078431372549 0  5.686274509803922 0.196078431372549 0  5.882352941176471 0.196078431372549 0  6.078431372549019 0.196078431372549 0  6.274509803921569 0.196078431372549 0  6.470588235294118 0.196078431372549 0  6.666666666666667 0.196078431372549 0  6.862745098039215 0.196078431372549 0  7.058823529411764 0.196078431372549 0  7.254901960784314 0.196078431372549 0  7.450980392156863 0.196078431372549 0  7.647058823529412 0.196078431372549 0  7.84313725490196 0.196078431372549 0  8.03921568627451 0.196078431372549 0  8.235294117647058 0.196078431372549 0  8.431372549019608 0.196078431372549 0  8.627450980392156 0.196078431372549 0  8.823529411764707 0.196078431372549 0  9.019607843137255 0.196078431372549 0  9.215686274509803 0.196078431372549 0  9.411764705882353 0.196078431372549 0  9.607843137254902 0.196078431372549 0  9.803921568627452 0.196078431372549 0  10 0.196078431372549 0  0 0.392156862745098 0  0.196078431372549 0.392156862745098 0  0.392156862745098 0.392156862745098 0  0.5882352941176471 0.392156862745098 0  0.7843137254901961 0.392156862745098 0  0.9803921568627451 0.392156862745098 0  1.176470588235294 0.392156862745098 0  1.372549019607843 0.392156862745098 0  1.568627450980392 0.392156862745098 0  1.764705882352941 0.392156862745098 0  1.96078431372549 0.392156862745098 0  2.156862745098039 0.392156862745098 0  2.352941176470588 0.392156862745098 0  2.549019607843137 0.392156862745098 0  2.745098039215686 0.392156862745098 0  2.941176470588236 0.392156862745098 0  3.137254901960784 0.392156862745098 0  3.333333333333333 0.392156862745098 0  3.529411764705882 0.392156862745098 0  3.725490196078431 0.392156862745098 0  3.92156862745098 0.392156862745098 0  4.117647058823529 0.392156862745098 0  4.313725490196078 0.392156862745098 0  4.509803921568627 0.392156862745098 0  4.705882352941177 0.392156862745098 0  4.901960784313726 0.392156862745098 0  5.098039215686274 0.392156862745098 0  5.294117647058823 0.392156862745098 0  5.490196078431373 0.392156862745098 0  5.686274509803922 0.392156862745098 0  5.882352941176471 0.392156862745098 0  6.078431372549019 0.392156862745098 0  6.274509803921569 0.392156862745098 0  6.470588235294118 0.392156862745098 0  6.666666666666667 0.392156862745098 0  6.862745098039215 0.392156862745098 0  7.058823529411764 0.392156862745098 0  7.254901960784314 0.392156862745098 0  7.450980392156863 0.392156862745098 0  7.647058823529412 0.392156862745098 0  7.84313725490196 0.392156862745098 0  8.03921568627451 0.392156862745098 0  8.235294117647058 0.392156862745098 0  8.431372549019608 0.392156862745098 0  8.627450980392156 0.392156862745098 0  8.823529411764707 0.392156862745098 0  9.019607843137255 0.392156862745098 0  9.215686274509803 0.392156862745098 0  9.411764705882353 0.392156862745098 0  9.607843137254902 0.392156862745098 0  9.803921568627452 0.392156862745098 0  10 0.392156862745098 0  0 0.5882352941176471 0  0.196078431372549 0.5882352941176471 0  0.392156862745098 0.5882352941176471 0  0.5882352941176471 0.5882352941176471 0  0.7843137254901961 0.5882352941176471 0  0.9803921568627451 0.5882352941176471 0  1.176470588235294 0.5882352941176471 0  1.372549019607843 0.5882352941176471 0  1.568627450980392 0.5882352941176471 0  1.764705882352941 0.5882352941176471 0  1.96078431372549 0.5882352941176471 0  2.156862745098039 0.5882352941176471 0  2.352941176470588 0.5882352941176471 0  2.549019607843137 0.5882352941176471 0  2.745098039215686 0.5882352941176471 0  2.941176470588236 0.5882352941176471 0  3.137254901960784 0.5882352941176471 0  3.333333333333333 0.5882352941176471 0  3.529411764705882 0.5882352941176471 0  3.725490196078431 0.5882352941176471 0  3.92156862745098 0.5882352941176471 0  4.117647058823529 0.5882352941176471 0  4.313725490196078 0.5882352941176471 0  4.509803921568627 0.5882352941176471 0  4.705882352941177 0.5882352941176471 0  4.901960784313726 0.5882352941176471 0  5.098039215686274 0.5882352941176471 0  5.294117647058823 0.5882352941176471 0  5.490196078431373 0.5882352941176471 0  5.686274509803922 0.5882352941176471 0  5.882352941176471 0.5882352941176471 0  6.078431372549019 0.5882352941176471 0  6.274509803921569 0.5882352941176471 0  6.470588235294118 0.5882352941176471 0  6.666666666666667 0.5882352941176471 0  6.862745098039215 0.5882352941176471 0  7.058823529411764 0.5882352941176471 0  7.254901960784314 0.5882352941176471 0  7.450980392156863 0.5882352941176471 0  7.647058823529412 0.5882352941176471 0  7.84313725490196 0.5882352941176471 0  8.03921568627451 0.5882352941176471 0  8.235294117647058 0.5882352941176471 0  8.431372549019608 0.5882352941176471 0  8.627450980392156 0.5882352941176471 0  8.823529411764707 0.5882352941176471 0  9.019607843137255 0.5882352941176471 0  9.215686274509803 0.5882352941176471 0  9.411764705882353 0.5882352941176471 0  9.607843137254902 0.5882352941176471 0  9.803921568627452 0.5882352941176471 0  10 0.5882352941176471 0  0 0.7843137254901961 0  0.196078431372549 0.7843137254901961 0  0.392156862745098 0.7843137254901961 0  0.5882352941176471 0.7843137254901961 0  0.7843137254901961 0.7843137254901961 0  0.9803921568627451 0.7843137254901961 0  1.176470588235294 0.7843137254901961 0  1.372549019607843 0.7843137254901961 0  1.568627450980392 0.7843137254901961 0  1.764705882352941 0.7843137254901961 0  1.96078431372549 0.7843137254901961 0  2.156862745098039 0.7843137254901961 0  2.352941176470588 0.7843137254901961 0  2.549019607843137 0.7843137254901961 0  2.745098039215686 0.7843137254901961 0  2.941176470588236 0.7843137254901961 0  3.137254901960784 0.7843137254901961 0  3.333333333333333 0.7843137254901961 0  3.529411764705882 0.7843137254901961 0  3.725490196078431 0.7843137254901961 0  3.92156862745098 0.7843137254901961 0  4.117647058823529 0.7843137254901961 0  4.313725490196078 0.7843137254901961 0  4.509803921568627 0.7843137254901961 0  4.705882352941177 0.7843137254901961 0  4.901960784313726 0.7843137254901961 0  5.098039215686274 0.7843137254901961 0  5.294117647058823 0.7843137254901961 0  5.490196078431373 0.7843137254901961 0  5.686274509803922 0.7843137254901961 0  5.882352941176471 0.7843137254901961 0  6.078431372549019 0.7843137254901961 0  6.274509803921569 0.7843137254901961 0  6.470588235294118 0.7843137254901961 0  6.666666666666667 0.7843137254901961 0  6.862745098039215 0.7843137254901961 0  7.058823529411764 0.7843137254901961 0  7.254901960784314 0.7843137254901961 0  7.450980392156863 0.7843137254901961 0  7.647058823529412 0.7843137254901961 0  7.84313725490196 0.7843137254901961 0  8.03921568627451 0.7843137254901961 0  8.235294117647058 0.7843137254901961 0  8.431372549019608 0.7843137254901961 0  8.627450980392156 0.7843137254901961 0  8.823529411764707 0.7843137254901961 0  9.019607843137255 0.7843137254901961 0  9.215686274509803 0.7843137254901961 0  9.411764705882353 0.7843137254901961 0  9.607843137254902 0.7843137254901961 0  9.803921568627452 0.7843137254901961 0  10 0.7843137254901961 0  0 0.9803921568627451 0  0.196078431372549 0.9803921568627451 0  0.392156862745098 0.9803921568627451 0  0.5882352941176471 0.9803921568627451 0  0.7843137254901961 0.9803921568627451 0  0.9803921568627451 0.9803921568627451 0  1.176470588235294 0.9803921568627451 0  1.372549019607843 0.9803921568627451 0  1.568627450980392 0.9803921568627451 0  1.764705882352941 0.9803921568627451 0  1.96078431372549 0.9803921568627451 0  2.156862745098039 0.9803921568627451 0  2.352941176470588 0.9803921568627451 0  2.549019607843137 0.98
[...]
<PointData  Scalars="f_15"> 
<DataArray  type="Float64"  Name="f_15"  format="ascii">-2.3560672895052130e+00  -2.3760650905192744e+00  -2.3968619326031204e+00  -2.4184878167705546e+00  -2.4409718504250919e+00  -2.4643420221519214e+00  -2.4886246943445132e+00  -2.5138440201483512e+00  -2.5400212831099829e+00  -2.5671741608843655e+00  -2.5953159182808871e+00  -2.6244545398810124e+00  -2.6545918184199797e+00  -2.6857224219543636e+00  -2.7178329702425921e+00  -2.7509011582636305e+00  -2.7848949717030926e+00  -2.8197720446696151e+00  -2.8554792128578481e+00  -2.8919523148114719e+00  -2.9291162889530296e+00  -2.9668856040507969e+00  -3.0051650457177757e+00  -3.0438508619913507e+00  -3.0828325501818226e+00  -3.1215404463439551e+00  3.1219720105868367e+00  3.0828103800355091e+00  3.0438292329958938e+00  3.0051437675440380e+00  2.9668647788808369e+00  2.9290960074128476e+00  2.8919326543258537e+00  2.8554602366616741e+00  2.8197538014654437e+00  2.7848774959102838e+00  2.7508844707706306e+00  2.7178170795531917e+00  2.6857073256105610e+00  2.6545775045869924e+00  2.6244409889913358e+00  2.5953031046511645e+00  2.5671620542383891e+00  2.5400098499609487e+00  2.5138332250118278e+00  2.4886145007692599e+00  2.4643323935682107e+00  2.4409627508194371e+00  2.4184792112019706e+00  2.3968537875796749e+00  2.3760574084972226e+00  2.3561936900573621e+00  -2.3360647065511198e+00  -2.3560623378082051e+00  -2.3768929499380684e+00  -2.3985907263340267e+00  -2.4211892192744631e+00  -2.4447211393596917e+00  -2.4692178148515236e+00  -2.4947085588725493e+00  -2.5212199398958934e+00  -2.5487749540510491e+00  -2.5773921021185742e+00  -2.6070843798388763e+00  -2.6378581973848938e+00  -2.6697122524713217e+00  -2.7026363913172426e+00  -2.7366105020055485e+00  -2.7716034948466821e+00  -2.8075724329997267e+00  -2.8444618824148624e+00  -2.8822035515922475e+00  -2.9207162872439603e+00  -2.9599064806120450e+00  -2.9996689205448690e+00  -3.0398881040502848e+00  -3.0804403300056871e+00  -3.1207951853558535e+00  3.1211690949510387e+00  3.0804152989753160e+00  3.0398637187167190e+00  2.9996449746471532e+00  2.9598831007351483e+00  2.9206935844943427e+00  2.8821816195052681e+00  2.8444407957843318e+00  2.8075522476020578e+00  2.7715842479683817e+00  2.7365922136368712e+00  2.7026190658488640e+00  2.6696958807239595e+00  2.6378427588107809e+00  2.6070698447544469e+00  2.5773784338549715e+00  2.5487621109387697e+00  2.5212078770287283e+00  2.4946972296215177e+00  2.4692071721205102e+00  2.4447111365904544e+00  2.4211798112197904e+00  2.3985818696246470e+00  2.3768846034722562e+00  2.3560544972487452e+00  2.3361905256147297e+00  -2.3152629373829678e+00  -2.3352263674238047e+00  -2.3560567503380803e+00  -2.3777927937882204e+00  -2.4004729488225833e+00  -2.4241351876840675e+00  -2.4488164366092029e+00  -2.4745518980259038e+00  -2.5013742535643240e+00  -2.5293127423198816e+00  -2.5583921134144259e+00  -2.5886314583776517e+00  -2.6200429374241896e+00  -2.6526304243845877e+00  -2.6863881076633880e+00  -2.7212990985953400e+00  -2.7573341129597519e+00  -2.7944503047076674e+00  -2.8325903412065943e+00  -2.8716818142409983e+00  -2.9116370783170598e+00  -2.9523535955907492e+00  -2.9937148439557766e+00  -3.0355918118802276e+00  -3.0778454653781204e+00  -3.1199274774852439e+00  3.1202987792160655e+00  3.0778168925734422e+00  3.0355640222943716e+00  2.9936876099225147e+00  2.9523270752370925e+00  2.9116114088631906e+00  2.8716571093364114e+00  2.8325666895714035e+00  2.7944277700194688e+00  2.7573127348351414e+00  2.7212788944529316e+00  2.6863690752241585e+00  2.6526125445629209e+00  2.6200261773832847e+00  2.5886157745584910e+00  2.5583774543908229e+00  2.5292990513769356e+00  2.5013614709390568e+00  2.4745399627840987e+00  2.4488052881600475e+00  2.4241247669540527e+00  2.4004631991228336e+00  2.3777836614163070e+00  2.3560481849575656e+00  2.3352183565339644e+00  2.3153881256154438e+00  -2.2936321870634178e+00  -2.3135232713975502e+00  -2.3343149022283449e+00  -2.3560506875027163e+00  -2.3787744422152017e+00  -2.4025299658226942e+00  -2.4273604590009410e+00  -2.4533078096344938e+00  -2.4804117341689764e+00  -2.5087087630924776e+00  -2.5382310638831846e+00  -2.5690051017397657e+00  -2.6010501482249446e+00  -2.6343766608756272e+00  -2.6689845728520472e+00  -2.7048615503505506e+00  -2.7419812957071903e+00  -2.7803019940371709e+00  -2.8197650182637837e+00  -2.8602940182048360e+00  -2.9017945204180644e+00  -2.9441541534813434e+00  -2.9872435861411355e+00  -3.0309182231310148e+00  -3.0750211263075413e+00  -3.1189828523959759e+00  3.1193508397845031e+00  3.0749881435152036e+00  3.0308862050763334e+00  2.9872122768405953e+00  2.9441237520505981e+00  2.9017651974961431e+00  2.8602659125672005e+00  2.8197382352965361e+00  2.7802766059548740e+00  2.7419573432658897e+00  2.7048390457242859e+00  2.6689635033068031e+00  2.6343569928831876e+00  2.6010318316996761e+00  2.5689880741415183e+00  2.5382152539976270e+00  2.5086940943669331e+00  2.4803981275408074e+00  2.4532951858368506e+00  2.4273487403661131e+00  2.4025190776270189e+00  2.3787643136231176e+00  2.3560412521731982e+00  2.3343060986467599e+00  2.3135150772796882e+00  2.2937564599962679e+00  -2.2711433826408034e+00  -2.2909195333312122e+00  -2.3116289915715678e+00  -2.3333206302196450e+00  -2.3560440933312488e+00  -2.3798495884433897e+00  -2.4047873024994018e+00  -2.4309066657417917e+00  -2.4582554429546355e+00  -2.4868786332205786e+00  -2.5168171634038670e+00  -2.5481063676115085e+00  -2.5807742556623983e+00  -2.6148395887424507e+00  -2.6503098002815304e+00  -2.6871788244536461e+00  -2.7254249225453520e+00  -2.7650086266229690e+00  -2.8058709470401149e+00  -2.8479320107117068e+00  -2.8910903052539032e+00  -2.9352226945748279e+00  -2.9801853400905376e+00  -3.0258156069764781e+00  -3.0719355371244506e+00  -3.1179506342620704e+00  3.1183143884884377e+00  3.0718970331548925e+00  3.0257783082284959e+00  2.9801489536256009e+00  2.9351874730463248e+00  2.8910564622000177e+00  2.8478997162664523e+00  2.8058403263179508e+00  2.7649797605562192e+00  2.7253978507663024e+00  2.6871535497041594e+00  2.6502862938008747e+00  2.6148177961156986e+00  2.5807541026878726e+00  2.5480877658457004e+00  2.5168000151480543e+00  2.4868628358117335e+00  2.4582408923058483e+00  2.4308932591408552e+00  2.4047749407182191e+00  2.3798381772376263e+00  2.3560335444224503e+00  2.3333108618543488e+00  2.3116199287472043e+00  2.2909111420775905e+00  2.2712664245054559e+00  -2.2477685747109590e+00  -2.2673824839668519e+00  -2.2879610893973124e+00  -2.3095588673376546e+00  -2.3322317405898505e+00  -2.3560369055594768e+00  -2.3810322683109106e+00  -2.4072757072424404e+00  -2.4348241334212628e+00  -2.4637323198923862e+00  -2.4940514740560449e+00  -2.5258275335474121e+00  -2.5590991771304195e+00  -2.5938955591108086e+00  -2.6302337996229439e+00  -2.6681162942065098e+00  -2.7075279436771358e+00  -2.7484334471701191e+00  -2.7907748431651100e+00  -2.8344695188797386e+00  -2.8794089294239917e+00  -2.9254582655670438e+00  -2.9724572750787566e+00  -3.0202223732248989e+00  -3.0685507835079631e+00  -3.1168180804274335e+00  3.1171764009257408e+00  3.0685053310231303e+00  3.0201784458579182e+00  2.9724145322694380e+00  2.9254170302362148e+00  2.8793694703068367e+00  2.8344320451384819e+00  2.7907395028699971e+00  2.7484003292452530e+00  2.7074970826409426e+00  2.6680876768990984e+00  2.6302073730958497e+00  2.5938712389319538e+00  2.5590768554943537e+00  2.5258070867442832e+00  2.4940327690151012e+00  2.4637152196586776e+00  2.4348085015378409e+00  2.4072614110921786e+00  2.3810191815241728e+00  2.3560249096213011e+00  2.3322207257888690e+00  2.3095487331944811e+00  2.2879517446975224e+00  2.2673738808382846e+00  2.2478900368830335e+00  -2.2234814450198579e+00  -2.2428808422042286e+00  -2.2632743195199829e+00  -2.2847222508697822e+00  -2.3072872519784564e+00  -2.3310340677118488e+00  -2.3560290560103105e+00  -2.3823394785691976e+00  -2.4100325593561851e+00  -2.4391742699532988e+00  -2.4698278011653589e+00  -2.5020516847730705e+00  -2.5358975394732695e+00  -2.5714074328891243e+00  -2.6086108789414566e+00  -2.6475215282287556e+00  -2.6881336585571503e+00  -2.7304186315248438e+00  -2.7743215442649269e+00  -2.8197583646310309e+00  -2.8666138812329542e+00  -2.9147408123988643e+00  -2.9639603863534272e+00  -3.0140646191783889e+00  -3.0648212571192830e+00  -3.1155698562073089e+00  3.1159211667932296e+00  3.0647670160241902e+00  3.0140123306159490e+00  2.9639096491566170e+00  2.9146920421278613e+00  2.8665674177413076e+00  2.8197144653951844e+00  2.7742803833491410e+00  2.7303803034562062e+00  2.6880981860092898e+00  2.6474888722510079e+00  2.6085809504970583e+00  2.5713801046297107e+00  2.5358726569174852e+00  2.5020290763202815e+00  2.4698072866210863e+00  2.4391556674469479e+00  2.4100156906839527e+00  2.3823241730963667e+00  2.3560151533243592e+00  2.3310214192406322e+00  2.3072757217862381e+00  2.2847117158269832e+00  2.2632646690172713e+00  2.2428720119112926e+00  2.2236009448281964e+00  -2.1982578896544682e+00  -2.2173853481650929e+00  -2.2375335367720219e+00  -2.2587689540974720e+00  -2.2811612620699959e+00  -2.3047832645298651e+00  -2.3297104744883055e+00  -2.3560204719547939e+00  -2.3837920020553542e+00  -2.4131037576042318e+00  -2.4440327869889025e+00  -2.4766524690001015e+00  -2.5110300034996342e+00  -2.5472233835401386e+00  -2.5852778440263284e+00  -2.6252218273233803e+00  -2.6670625693283094e+00  -2.7107814898852109e+00  -2.7563296643434030e+00  -2.8036237480702404e+00  -2.8525428058245539e+00  -2.9029265404857889e+00  -2.9545753962396004e+00  -3.0072529102113923e+00  -3.0606916026499982e+00  -3.1141873405942455e+00  3.1145295620270734e+00  3.0606261922139857e+00  3.0071900261232529e+00  2.9545145612027732e+00  2.9028682926890474e+00  2.8524875767672628e+00  2.8035718545036139e+00  2.7562813084738615e+00  2.7107367665482887e+00  2.6670214783213266e+00  2.6251842889200194e+00  2.5852437158241623e+00  2.5471924771140544e+00  2.5110020997464821e+00  2.4766273314774314e+00  2.4440101729161565e+00  2.4130834264792811e+00  2.3837737220363704e+00  2.3560040242754083e+00  2.3296956562284254e+00  2.3047698900730347e+00  2.2811491635570094e+00  2.2587579811482050e+00  2.2375235557028268e+00  2.2173762752725694e+00  2.1983750096912260e+00  -2.1720766793987618e+00  -2.1908694928311814e+00  -2.2107061242872503e+00  -2.2316593307328216e+00  -2.2538060815802257e+00  -2.2772276655577897e+00  -2.3020093850449270e+00  -2.3282400314711946e+00  -2.3560110792241140e+00  -2.3854155252331384e+00  -2.4165462925338184e+00  -2.4494941108032711e+00  -2.4843447882100849e+00  -2.5211758011470464e+00  -2.5600521567203653e+00  -2.6010215329661093e+00  -2.6441087787463529e+00  -2.6893099616646392e+00  -2.7365862852770770e+00  -2.7858583448682821e+00  -2.8370013313111841e+00  -2.8898418906413541e+00  -2.9441573611872913e+00  -2.9996780014546691e+00  -3.0560939713320692e+00  -3.1126476953487026e+00  3.1129780718681124e+00  3.0560143006388181e+00  2.9996016314586824e+00  2.9440837203558590e+00  2.8897716800496078e+00  2.8369351003787497e+00  2.7857964820327528e+00  2.7365290208483644e+00  2.6892573805729945e+00  2.6440608402008223e+00  2.6009780939321177e+00  2.5600129964661948e+00  2.5211406447136571e+00  2.4843133273520936e+00  2.4494660216001605e+00  2.4165212494029009e+00  2.3853932114606509e+00  2.3559911943730185e+00  2.3282222961477053e+00  2.3019935435412493e+00  2.2772134868659477e+00  2.2537933592159449e+00  2.2316478817377439e+00  2.2106957877046804e+00  2.1908601623054227e+00  2.1721909674848843e+00  -2.1449201958627739e+00  -2.1633103456810443e+00  -2.1827629153343429e+00  -2.2033569297483662e+00  -2.2251767982127086e+00  -2.2483125919319025e+00  -2.2728599175290789e+00  -2.2989195725648983e+00  -2.3265969082720379e+00  -2.3560008083899735e+00  -2.3872421764585949e+00  -2.4204318094395649e+00  -2.4556775267593860e+00  -2.4930804263167730e+00  -2.5327301602434824e+00  -2.5746991726747837e+00  -2.6190359296495145e+00  -2.6657573059609923e+00  -2.7148404777398323e+00  -2.7662148932107118e+00  -2.8197551295151966e+00  -2.8752756405847828e+00  -2.9325284904557392e+00  -2.9912050739785769e+00  -3.0509442916455560e+00  -3.1109225969937522e+00  3.1112374599804187e+00  3.0508463347611334e+00  2.9911114685036790e+00  2.9324385502315651e+00  2.8751902836148289e+00  2.8196750563709578e+00  2.7661405770796867e+00  2.7147721725108593e+00  2.6656950683092564e+00  2.6189796502080211e+00  2.5746486114716833e+00  2.5326849823506534e+00  2.4930402347542060e+00  2.4556418908432098e+00  2.4204002877568027e+00  2.3872143344061723e+00  2.3559762307136372e+00  2.3265752073147206e+00  2.2989003930367193e+00  2.2728429385981066e+00  2.2482975273538641e+00  2.2251633951049663e+00  2.2033449664932139e+00  2.1827521989835739e+00  2.1633007435968192e+00  2.1450311658375565e+00  -2.1167752380625768e+00  -2.1346894773982781e+00  -2.1536792405842609e+00  -2.1738296724487514e+00  -2.1952325834706250e+00  -2.2179869446817690e+00  -2.2421989999277918e+00  -2.2679821760531977e+00  -2.2954567055084554e+00  -2.3247488523546700e+00  -2.3559896062735928e+00  -2.3893126819166106e+00  -2.4248516365624515e+00  -2.4627359041295169e+00  -2.5030855481918168e+00  -2.5460045749161875e+00  -2.5915727364420560e+00  -2.6398359148111226e+00  -2.6907954199653386e+00  -2.7443968618026044e+00  -2.8005196374394909e+00  -2.8589684425429893e+00  -2.9194684588989968e+00  -2.9816658523772412e+00  -3.0451371216197947e+00  -3.1089764788379028e+00  3.1092709253342927e+00  3.0450156201328000e+00  2.9815501361628982e+00  2.9193577054338040e+00  2.8588638591515321e+00  2.8004221170791452e+00  2.7443069742321753e+00  2.6907134296924435e+00  2.6397618187060887e+00  2.5915063129368758e+00  2.5459454373140851e+00  2.5030331961931709e+00  2.4626897696235153e+00  2.4248111215789980e+00  2.3892771881152615e+00  2.3559585563752306e+00  2.3247217045246784e+00  2.2954329619648983e+00  2.2679613872033340e+00  2.2421807652247576e+00  2.2179709112124431e+00  2.1952184430847548e+00  2.1738171580479912e+00  2.1536681220229581e+00  2.1346795918156749e+00  2.1168823715738658e+00  -2.0876338891761876e+00  -2.1049939689685622e+00  -2.1234360952126941e+00  -2.1430511913668262e+00  -2.1639382130532532e+00  -2.1862049090578326e+00  -2.2099682373249632e+00  -2.2353546147079917e+00  -2.2624999079681674e+00  -2.2915490421204017e+00  -2.3226550641861925e+00  -2.3559774566799971e+00  -2.3916794488218898e+00  -2.4299240311884707e+00  -2.4708683532838651e+00  -2.5146561925379634e+00  -2.5614082550208863e+00  -2.6112102371727279e+00  -2.6640988792334785e+00  -2.7200466964694670e+00  -2.7789466684496449e+00  -2.8405988184284348e+00  -2.9047011563697711e+00  -2.9708476458704283e+00  -3.0385384121445993e+00  -3.1067640446526799e+00  3.1070315025587218e+00  3.0383864840284862e+00  2.9707034710220581e+00  2.9045637548382519e+00  2.8404697833285146e+00  2.7788271347295952e+00  2.7199373371650406e+00  2.6639999414742390e+00  2.6111216054437802e+00  2.5613295284370987e+00  2.5145867646559568e+00  2.4708074860650604e+00  2.4298709180738469e+00  2.3916332647821377e+00  2.3559373952385552e+00  2.3226203627407216e+00  2.2915189975395949e+00  2.2624738846061359e+00  2.2353320468429576e+00  2.2099486277401201e+00  2.1861878251419196e+00  2.1639232814682647e+00  2.1430380920418424e+00  2.1234245551875444e+00  2.1049837909811373e+00  2.0877366386460725e+00  -2.0574944272443974e+00  -2.0742174912597853e+00  -2.0920214116832998e+00  -2.1110023207451483e+00  -2.1312657976608542e+00  -2.1529279431801625e+00  -2.1761161659373429e+00  -2.2009698632196928e+00  -2.2276409031387772e+00  -2.2562937762420328e+00  -2.2871052341036839e+00  -2.3202631693730829e+00  -2.3559644171059353e+00  -2.3944110758995980e+00  -2.4358048713193581e+00  -2.4803390362545721e+00  -2.5281872014078592e+00  -2.5794889301540875e+00  -2.6343318657931838e+00  -2.6927310537313742e+00  -2.7546068851798160e+00  -2.8197642136802408e+00  -2.8878762905177013e+00  -2.9584778327691073e+00  -3.0309751234480062e+00  -3.1042266720595943e+00  3.1044583191563415e+00  3.0307837550916523e+00  2.9582969335912281e+00  2.8877047065601369e+00  2.8196040511386484e+00  2.7544595776518714e+00  2.6925973718252227e+00  2.6342119855044110e+00  2.5793825381445958e+00  2.5280936156489027e+00  2.4802573246956383e+00  2.4357339570313874e+00  2.3943498227449558e+00  2.3559116944119181e+00  2.3202178970177858e+00  2.2870664109954801e+00  2.2562604957232391e+00  2.2276123587383552e+00  2.2009453477268761e+00  2.1760950661852085e+00  2.1529097323480584e+00  2.1312500263951475e+00  2.1109886079843538e+00  2.0920094357567769e+00  2.0742070162020001e+00  2.0575922201703576e+00  -2.0263622567641515e+00  -2.0423614305641413e+00  -2.0594314133799965e+00  -2.0776727154418668e+00  -2.0971967058764438e+00  -2.1181270422897072e+00  -2.1406008900547469e+00  -2.1647701255417395e+00  -2.1908024395225243e+00  -2.2188822123798069e+00  -2.2492109709851369e+00  -2.2820071540670410e+00  -2.3175048054699126e+00  -2.3559506831345050e+00  -2.3975991236536496e+00  -2.4427038598711861e+00  -2.4915058979324929e+00  -2.5442166005359588e+00  -2.6009954154397184e+00  -2.6619223830517313e+00  -2.7269667878833030e+00  -2.7959551006248757e+00  -2.8685434343022669e+00  -2.9442014479673877e+00  -3.0222199799558567e+00  -3.1012870748955468e+00  3.1014710800471286e+00  3.0219773814625559e+00  2.9439730844111560e+00  2.8683279721975468e+00  2.7957553243958033e+00  2.7267844886525903e+00  2.6617583979729167e+00  2.6008497530337964e+00  2.5440886140652199e+00  2.4913944722381980e+00  2.4426075861032666e+00  2.3975164467549623e+00  2.3558800160207016e+00  2.3174446103178714e+00  2.2819559948921970e+00  2.2491675432791158e+00  2.2188453557139804e+00  2.1907711383508306e+00  2.1647435024334856e+00  2.1405781945505127e+00  2.1181076376538495e+00  2.0971800552761861e+00  2.0776583685194221e+00  2.0594189937783423e+00  2.0423506593491418e+00  2.0264545014842272e+00  -1.9942508307307139e+00  -2.0094360258518322e+00  -2.0256720116568059e+00  -2.0430625590941518e+00  -2.0617236409432631e+00  -2.0817852460313651e+00  -2.1033930822811704e+00  -2.1267103840871431e+00  -2.1519197625569859e+00  -2.1792249909454684e+00  -2.2088525488509867e+00  -2.2410526491718170e+00  -2.2760993320573895e+00  -2.3142890216098944e+00  -2.3559367007807119e+00  -2.4013685791801254e+00  -2.4509098491936241e+00  -2.5048659438479568e+00  -2.5634958032791131e+00  -2.6269763013226597e+00  -2.6953585198384205e+00  -2.7685192469578461e+00  -2.8461147954435480e+00  -2.9275480793637594e+00  -3.0119684978239554e+00  -3.0978411476355583e+00  3.0979617200967504e+00  3.0116593185542562e+00  2.9272583730892765e+00  2.8458430653069722e+00  2.7682691640060004e+00  2.6951322824362851e+00  2.6267747353119479e+00  2.5633185856049110e+00  2.5047118846262277e+00  2.4507771778635172e+00  2.4012551983464232e+00  2.3558403894227942e+00  2.3142075834727578e+00  2.2760306940094250e+00  2.2409949186710247e+00  2.2088040407297305e+00  2.1791842328727857e+00  2.1518854868309529e+00  2.1266815115287372e+00  2.1033687023048455e+00  2.0817645955976096e+00  2.0617060840710213e+00  2.0430475678833719e+00  2.0256591492812315e+00  2.0094249663903825e+00  1.9943369237304907e+00  -1.9611825252068207e+00  -1.9754614731834306e+00  -1.9907601949032323e+00  -2.0071843037500710e+00  -2.0248528089209463e+00  -2.0439003251615966e+00  -2.0644792891288231e+00  -2.0867624299168566e+00  -2.1109454702575041e+00  -2.1372499936452543e+00  -2.1659263452182600e+00  -2.1972563277549981e+00  -2.2315552912473633e+00  -2.2691729736441650e+00  -2.3104921088665997e+00  -2.3559233613524295e+00  -2.4058945879495117e+00  -2.4608318496602113e+00  -2.5211292109681875e+00  -2.5871045974330413e+00  -2.6589405116955915e+00  -2.7366120487008985e+00  -2.8198108703829097e+00  -2.9078817533976760e+00  -2.9998033288424661e+00  -3.0937450837830864e+00  3.0937813724819825e+00  2.9994077777530386e+00  2.9075129644249214e+00  2.8194672370961791e+00  2.7362983800994716e+00  2.6586594317932200e+00  2.586856762