<?xml version="1.0"?>
<VTKFile type="UnstructuredGrid"  version="0.1"  >
<UnstructuredGrid>
<Piece  NumberOfPoints="5101" NumberOfCells="10000">
<Points>
<DataArray  type="Float64"  NumberOfComponents="3"  format="ascii">0 0 0  0.2 0 0  0.4 0 0  0.6 0 0  0.8 0 0  1 0 0  1.2 0 0  1.4 0 0  1.6 0 0  1.8 0 0  2 0 0  2.2 0 0  2.4 0 0  2.6 0 0  2.8 0 0  3 0 0  3.2 0 0  3.4 0 0  3.6 0 0  3.8 0 0  4 0 0  4.2 0 0  4.4 0 0  4.6 0 0  4.8 0 0  5 0 0  5.2 0 0  5.4 0 0  5.6 0 0  5.8 0 0  6 0 0  6.2 0 0  6.4 0 0  6.6 0 0  6.8 0 0  7 0 0  7.2 0 0  7.4 0 0  7.6 0 0  7.8 0 0  8 0 0  8.199999999999999 0 0  8.4 0 0  8.6 0 0  8.800000000000001 0 0  9 0 0  9.199999999999999 0 0  9.4 0 0  9.6 0 0  9.800000000000001 0 0  10 0 0  0 0.2 0  0.2 0.2 0  0.4 0.2 0  0.6 0.2 0  0.8 0.2 0  1 0.2 0  1.2 0.2 0  1.4 0.2 0  1.6 0.2 0  1.8 0.2 0  2 0.2 0  2.2 0.2 0  2.4 0.2 0  2.6 0.2 0  2.8 0.2 0  3 0.2 0  3.2 0.2 0  3.4 0.2 0  3.6 0.2 0  3.8 0.2 0  4 0.2 0  4.2 0.2 0  4.4 0.2 0  4.6 0.2 0  4.8 0.2 0  5 0.2 0  5.2 0.2 0  5.4 0.2 0  5.6 0.2 0  5.8 0.2 0  6 0.2 0  6.2 0.2 0  6.4 0.2 0  6.6 0.2 0  6.8 0.2 0  7 0.2 0  7.2 0.2 0  7.4 0.2 0  7.6 0.2 0  7.8 0.2 0  8 0.2 0  8.199999999999999 0.2 0  8.4 0.2 0  8.6 0.2 0  8.800000000000001 0.2 0  9 0.2 0  9.199999999999999 0.2 0  9.4 0.2 0  9.6 0.2 0  9.800000000000001 0.2 0  10 0.2 0  0 0.4 0  0.2 0.4 0  0.4 0.4 0  0.6 0.4 0  0.8 0.4 0  1 0.4 0  1.2 0.4 0  1.4 0.4 0  1.6 0.4 0  1.8 0.4 0  2 0.4 0  2.2 0.4 0  2.4 0.4 0  2.6 0.4 0  2.8 0.4 0  3 0.4 0  3.2 0.4 0  3.4 0.4 0  3.6 0.4 0  3.8 0.4 0  4 0.4 0  4.2 0.4 0  4.4 0.4 0  4.6 0.4 0  4.8 0.4 0  5 0.4 0  5.2 0.4 0  5.4 0.4 0  5.6 0.4 0  5.8 0.4 0  6 0.4 0  6.2 0.4 0  6.4 0.4 0  6.6 0.4 0  6.8 0.4 0  7 0.4 0  7.2 0.4 0  7.4 0.4 0  7.6 0.4 0  7.8 0.4 0  8 0.4 0  8.199999999999999 0.4 0  8.4 0.4 0  8.6 0.4 0  8.800000000000001 0.4 0  9 0.4 0  9.199999999999999 0.4 0  9.4 0.4 0  9.6 0.4 0  9.800000000000001 0.4 0  10 0.4 0  0 0.6 0  0.2 0.6 0  0.4 0.6 0  0.6 0.6 0  0.8 0.6 0  1 0.6 0  1.2 0.6 0  1.4 0.6 0  1.6 0.6 0  1.8 0.6 0  2 0.6 0  2.2 0.6 0  2.4 0.6 0  2.6 0.6 0  2.8 0.6 0  3 0.6 0  3.2 0.6 0  3.4 0.6 0  3.6 0.6 0  3.8 0.6 0  4 0.6 0  4.2 0.6 0  4.4 0.6 0  4.6 0.6 0  4.8 0.6 0  5 0.6 0  5.2 0.6 0  5.4 0.6 0  5.6 0.6 0  5.8 0.6 0  6 0.6 0  6.2 0.6 0  6.4 0.6 0  6.6 0.6 0  6.8 0.6 0  7 0.6 0  7.2 0.6 0  7.4 0.6 0  7.6 0.6 0  7.8 0.6 0  8 0.6 0  8.199999999999999 0.6 0  8.4 0.6 0  8.6 0.6 0  8.800000000000001 0.6 0  9 0.6 0  9.199999999999999 0.6 0  9.4 0.6 0  9.6 0.6 0  9.800000000000001 0.6 0  10 0.6 0  0 0.8 0  0.2 0.8 0  0.4 0.8 0  0.6 0.8 0  0.8 0.8 0  1 0.8 0  1.2 0.8 0  1.4 0.8 0  1.6 0.8 0  1.8 0.8 0  2 0.8 0  2.2 0.8 0  2.4 0.8 0  2.6 0.8 0  2.8 0.8 0  3 0.8 0  3.2 0.8 0  3.4 0.8 0  3.6 0.8 0  3.8 0.8 0  4 0.8 0  4.2 0.8 0  4.4 0.8 0  4.6 0.8 0  4.8 0.8 0  5 0.8 0  5.2 0.8 0  5.4 0.8 0  5.6 0.8 0  5.8 0.8 0  6 0.8 0  6.2 0.8 0  6.4 0.8 0  6.6 0.8 0  6.8 0.8 0  7 0.8 0  7.2 0.8 0  7.4 0.8 0  7.6 0.8 0  7.8 0.8 0  8 0.8 0  8.199999999999999 0.8 0  8.4 0.8 0  8.6 0.8 0  8.800000000000001 0.8 0  9 0.8 0  9.199999999999999 0.8 0  9.4 0.8 0  9.6 0.8 0  9.800000000000001 0.8 0  10 0.8 0  0 1 0  0.2 1 0  0.4 1 0  0.6 1 0  0.8 1 0  1 1 0  1.2 1 0  1.4 1 0  1.6 1 0  1.8 1 0  2 1 0  2.2 1 0  2.4 1 0  2.6 1 0  2.8 1 0  3 1 0  3.2 1 0  3.4 1 0  3.6 1 0  3.8 1 0  4 1 0  4.2 1 0  4.4 1 0  4.6 1 0  4.8 1 0  5 1 0  5.2 1 0  5.4 1 0  5.6 1 0  5.8 1 0  6 1 0  6.2 1 0  6.4 1 0  6.6 1 0  6.8 1 0  7 1 0  7.2 1 0  7.4 1 0  7.6 1 0  7.8 1 0  8 1 0  8.199999999999999 1 0  8.4 1 0  8.6 1 0  8.800000000000001 1 0  9 1 0  9.199999999999999 1 0  9.4 1 0  9.6 1 0  9.800000000000001 1 0  10 1 0  0 1.2 0  0.2 1.2 0  0.4 1.2 0  0.6 1.2 0  0.8 1.2 0  1 1.2 0  1.2 1.2 0  1.4 1.2 0  1.6 1.2 0  1.8 1.2 0  2 1.2 0  2.2 1.2 0  2.4 1.2 0  2.6 1.2 0  2.8 1.2 0  3 1.2 0  3.2 1.2 0  3.4 1.2 0  3.6 1.2 0  3.8 1.2 0  4 1.2 0  4.2 1.2 0  4.4 1.2 0  4.6 1.2 0  4.8 1.2 0  5 1.2 0  5.2 1.2 0  5.4 1.2 0  5.6 1.2 0  5.8 1.2 0  6 1.2 0  6.2 1.2 0  6.4 1.2 0  6.6 1.2 0  6.8 1.2 0  7 1.2 0  7.2 1.2 0  7.4 1.2 0  7.6 1.2 0  7.8 1.2 0  8 1.2 0  8.199999999999999 1.2 0  8.4 1.2 0  8.6 1.2 0  8.800000000000001 1.2 0  9 1.2 0  9.199999999999999 1.2 0  9.4 1.2 0  9.6 1.2 0  9.800000000000001 1.2 0  10 1.2 0  0 1.4 0  0.2 1.4 0  0.4 1.4 0  0.6 1.4 0  0.8 1.4 0  1 1.4 0  1.2 1.4 0  1.4 1.4 0  1.6 1.4 0  1.8 1.4 0  2 1.4 0  2.2 1.4 0  2.4 1.4 0  2.6 1.4 0  2.8 1.4 0  3 1.4 0  3.2 1.4 0  3.4 1.4 0  3.6 1.4 0  3.8 1.4 0  4 1.4 0  4.2 1.4 0  4.4 1.4 0  4.6 1.4 0  4.8 1.4 0  5 1.4 0  5.2 1.4 0  5.4 1.4 0  5.6 1.4 0  5.8 1.4 0  6 1.4 0  6.2 1.4 0  6.4 1.4 0  6.6 1.4 0  6.8 1.4 0  7 1.4 0  7.2 1.4 0  7.4 1.4 0  7.6 1.4 0  7.8 1.4 0  8 1.4 0  8.199999999999999 1.4 0  8.4 1.4 0  8.6 1.4 0  8.800000000000001 1.4 0  9 1.4 0  9.199999999999999 1.4 0  9.4 1.4 0  9.6 1.4 0  9.800000000000001 1.4 0  10 1.4 0  0 1.6 0  0.2 1.6 0  0.4 1.6 0  0.6 1.6 0  0.8 1.6 0  1 1.6 0  1.2 1.6 0  1.4 1.6 0  1.6 1.6 0  1.8 1.6 0  2 1.6 0  2.2 1.6 0  2.4 1.6 0  2.6 1.6 0  2.8 1.6 0  3 1.6 0  3.2 1.6 0  3.4 1.6 0  3.6 1.6 0  3.8 1.6 0  4 1.6 0  4.2 1.6 0  4.4 1.6 0  4.6 1.6 0  4.8 1.6 0  5 1.6 0  5.2 1.6 0  5.4 1.6 0  5.6 1.6 0  5.8 1.6 0  6 1.6 0  6.2 1.6 0  6.4 1.6 0  6.6 1.6 0  6.8 1.6 0  7 1.6 0  7.2 1.6 0  7.4 1.6 0  7.6 1.6 0  7.8 1.6 0  8 1.6 0  8.199999999999999 1.6 0  8.4 1.6 0  8.6 1.6 0  8.800000000000001 1.6 0  9 1.6 0  9.199999999999999 1.6 0  9.4 1.6 0  9.6 1.6 0  9.800000000000001 1.6 0  10 1.6 0  0 1.8 0  0.2 1.8 0  0.4 1.8 0  0.6 1.8 0  0.8 1.8 0  1 1.8 0  1.2 1.8 0  1.4 1.8 0  1.6 1.8 0  1.8 1.8 0  2 1.8 0  2.2 1.8 0  2.4 1.8 0  2.6 1.8 0  2.8 1.8 0  3 1.8 0  3.2 1.8 0  3.4 1.8 0  3.6 1.8 0  3.8 1.8 0  4 1.8 0  4.2 1.8 0  4.4 1.8 0  4.6 1.8 0  4.8 1.8 0  5 1.8 0  5.2 1.8 0  5.4 1.8 0  5.6 1.8 0  5.8 1.8 0  6 1.8 0  6.2 1.8 0  6.4 1.8 0  6.6 1.8 0  6.8 1.8 0  7 1.8 0  7.2 1.8 0  7.4 1.8 0  7.6 1.8 0  7.8 1.8 0  8 1.8 0  8.199999999999999 1.8 0  8.4 1.8 0  8.6 1.8 0  8.800000000000001 1.8 0  9 1.8 0  9.199999999999999 1.8 0  9.4 1.8 0  9.6 1.8 0  9.800000000000001 1.8 0  10 1.8 0  0 2 0  0.2 2 0  0.4 2 0  0.6 2 0  0.8 2 0  1 2 0  1.2 2 0  1.4 2 0  1.6 2 0  1.8 2 0  2 2 0  2.2 2 0  2.4 2 0  2.6 2 0  2.8 2 0  3 2 0  3.2 2 0  3.4 2 0  3.6 2 0  3.8 2 0  4 2 0  4.2 2 0  4.4 2 0  4.6 2 0  4.8 2 0  5 2 0  5.2 2 0  5.4 2 0  5.6 2 0  5.8 2 0  6 2 0  6.2 2 0  6.4 2 0  6.6 2 0  6.8 2 0  7 2 0  7.2 2 0  7.4 2 0  7.6 2 0  7.8 2 0  8 2 0  8.199999999999999 2 0  8.4 2 0  8.6 2 0  8.800000000000001 2 0  9 2 0  9.199999999999999 2 0  9.4 2 0  9.6 2 0  9.800000000000001 2 0  10 2 0  0 2.2 0  0.2 2.2 0  0.4 2.2 0  0.6 2.2 0  0.8 2.2 0  1 2.2 0  1.2 2.2 0  1.4 2.2 0  1.6 2.2 0  1.8 2.2 0  2 2.2 0  2.2 2.2 0  2.4 2.2 0  2.6 2.2 0  2.8 2.2 0  3 2.2 0  3.2 2.2 0  3.4 2.2 0  3.6 2.2 0  3.8 2.2 0  4 2.2 0  4.2 2.2 0  4.4 2.2 0  4.6 2.2 0  4.8 2.2 0  5 2.2 0  5.2 2.2 0  5.4 2.2 0  5.6 2.2 0  5.8 2.2 0  6 2.2 0  6.2 2.2 0  6.4 2.2 0  6.6 2.2 0  6.8 2.2 0  7 2.2 0  7.2 2.2 0  7.4 2.2 0  7.6 2.2 0  7.8 2.2 0  8 2.2 0  8.199999999999999 2.2 0  8.4 2.2 0  8.6 2.2 0  8.800000000000001 2.2 0  9 2.2 0  9.199999999999999 2.2 0  9.4 2.2 0  9.6 2.2 0  9.800000000000001 2.2 0  10 2.2 0  0 2.4 0  0.2 2.4 0  0.4 2.4 0  0.6 2.4 0  0.8 2.4 0  1 2.4 0  1.2 2.4 0  1.4 2.4 0  1.6 2.4 0  1.8 2.4 0  2 2.4 0  2.2 2.4 0  2.4 2.4 0  2.6 2.4 0  2.8 2.4 0  3 2.4 0  3.2 2.4 0  3.4 2.4 0  3.6 2.4 0  3.8 2.4 0  4 2.4 0  4.2 2.4 0  4.4 2.4 0  4.6 2.4 0  4.8 2.4 0  5 2.4 0  5.2 2.4 0  5.4 2.4 0  5.6 2.4 0  5.8 2.4 0  6 2.4 0  6.2 2.4 0  6.4 2.4 0  6.6 2.4 0  6.8 2.4 0  7 2.4 0  7.2 2.4 0  7.4 2.4 0  7.6 2.4 0  7.8 2.4 0  8 2.4 0  8.199999999999999 2.4 0  8.4 2.4 0  8.6 2.4 0  8.800000000000001 2.4 0  9 2.4 0  9.199999999999999 2.4 0  9.4 2.4 0  9.6 2.4 0  9.800000000000001 2.4 0  10 2.4 0  0 2.6 0  0.2 2.6 0  0.4 2.6 0  0.6 2.6 0  0.8 2.6 0  1 2.6 0  1.2 2.6 0  1.4 2.6 0  1.6 2.6 0  1.8 2.6 0  2 2.6 0  2.2 2.6 0  2.4 2.6 0  2.6 2.6 0  2.8 2.6 0  3 2.6 0  3.2 2.6 0  3.4 2.6 0  3.6 2.6 0  3.8 2.6 0  4 2.6 0  4.2 2.6 0  4.4 2.6 0  4.6 2.6 0  4.8 2.6 0  5 2.6 0  5.2 2.6 0  5.4 2.6 0  5.6 2.6 0  5.8 2.6 0  6 2.6 0  6.2 2.6 0  6.4 2.6 0  6.6 2.6 0  6.8 2.6 0  7 2.6 0  7.2 2.6 0  7.4 2.6 0  7.6 2.6 0  7.8 2.6 0  8 2.6 0  8.199999999999999 2.6 0  8.4 2.6 0  8.6 2.6 0  8.800000000000001 2.6 0  9 2.6 0  9.199999999999999 2.6 0  9.4 2.6 0  9.6 2.6 0  9.800000000000001 2.6 0  10 2.6 0  0 2.8 0  0.2 2.8 0  0.4 2.8 0  0.6 2.8 0  0.8 2.8 0  1 2.8 0  1.2 2.8 0  1.4 2.8 0  1.6 2.8 0  1.8 2.8 0  2 2.8 0  2.2 2.8 0  2.4 2.8 0  2.6 2.8 0  2.8 2.8 0  3 2.8 0  3.2 2.8 0  3.4 2.8 0  3.6 2.8 0  3.8 2.8 0  4 2.8 0  4.2 2.8 0  4.4 2.8 0  4.6 2.8 0  4.8 2.8 0  5 2.8 0  5.2 2.8 0  5.4 2.8 0  5.6 2.8 0  5.8 2.8 0  6 2.8 0  6.2 2.8 0  6.4 2.8 0  6.6 2.8 0  6.8 2.8 0  7 2.8 0  7.2 2.8 0  7.4 2.8 0  7.6 2.8 0  7.8 2.8 0  8 2.8 0  8.199999999999999 2.8 0  8.4 2.8 0  8.6 2.8 0  8.800000000000001 2.8 0  9 2.8 0  9.199999999999999 2.8 0  9.4 2.8 0  9.6 2.8 0  9.800000000000001 2.8 0  10 2.8 0  0 3 0  0.2 3 0  0.4 3 0  0.6 3 0  0.8 3 0  1 3 0  1.2 3 0  1.4 3 0  1.6 3 0  1.8 3 0  2 3 0  2.2 3 0  2.4 3 0  2.6 3 0  2.8 3 0  3 3 0  3.2 3 0  3.4 3 0  3.6 3 0  3.8 3 0  4 3 0  4.2 3 0  4.4 3 0  4.6 3 0  4.8 3 0  5 3 0  5.2 3 0  5.4 3 0  5.6 3 0  5.8 3 0  6 3 0  6.2 3 0  6.4 3 0  6.6 3 0  6.8 3 0  7 3 0  7.2 3 0  7.4 3 0  7.6 3 0  7.8 3 0  8 3 0  8.199999999999999 3 0  8.4 3 0  8.6 3 0  8.800000000000001 3 0  9 3 0  9.199999999999999 3 0  9.4 3 0  9.6 3 0  9.800000000000001 3 0  10 3 0  0 3.2 0  0.2 3.2 0  0.4 3.2 0  0.6 3.2 0  0.8 3.2 0  1 3.2 0  1.2 3.2 0  1.4 3.2 0  1.6 3.2 0  1.8 3.2 0  2 3.2 0  2.2 3.2 0  2.4 3.2 0  2.6 3.2 0  2.8 3.2 0  3 3.2 0  3.2 3.2 0  3.4 3.2 0  3.6 3.2 0  3.8 3.2 0  4 3.2 0  4.2 3.2 0  4.4 3.2 0  4.6 3.2 0  4.8 3.2 0  5 3.2 0  5.2 3.2 0  5.4 3.2 0  5.6 3.2 0  5.8 3.2 0  6 3.2 0  6.2 3.2 0  6.4 3.2 0  6.6 3.2 0  6.8 3.2 0  7 3.2 0  7.2 3.2 0  7.4 3.2 0  7.6 3.2 0  7.8 3.2 0  8 3.2 0  8.199999999999999 3.2 0  8.4 3.2 0  8.6 3.2 0  8.800000000000001 3.2 0  9 3.2 0  9.199999999999999 3.2 0  9.4 3.2 0  9.6 3.2 0  9.800000000000001 3.2 0  10 3.2 0  0 3.4 0  0.2 3.4 0  0.4 3.4 0  0.6 3.4 0  0.8 3.4 0  1 
[...]
<PointData  Scalars="f_13"> 
<DataArray  type="Float64"  Name="f_13"  format="ascii">3.9269908169872414e+00  3.9228791664242588e+00  3.9102604386045856e+00  3.8921276705063645e+00  3.8705582203213829e+00  3.8468809530223753e+00  3.8217572878392554e+00  3.7954352417090518e+00  3.7679751725737094e+00  3.7393740742084360e+00  3.7096153299650441e+00  3.6786845846899179e+00  3.6465745463525088e+00  3.6132870449287320e+00  3.5788345478693953e+00  3.5432415349878035e+00  3.5065457323690823e+00  3.4687991274351671e+00  3.4300686720902229e+00  3.3904365809113663e+00  3.3500001414957903e+00  3.3088709746553406e+00  3.2671737129182237e+00  3.2250441049241774e+00  3.1826265972465677e+00  3.1400714890151638e+00  3.0975317928419535e+00  3.0551599626723807e+00  3.0131046613465746e+00  2.9715077360815156e+00  2.9305015495458866e+00  2.8902067808362584e+00  2.8507307693098802e+00  2.8121664304257243e+00  2.7745917317117481e+00  2.7380696827908007e+00  2.7026487685346674e+00  2.6683637396795818e+00  2.6352366700742502e+00  2.6032781933398907e+00  2.5724888490938040e+00  2.5428605471444774e+00  2.5143785609960796e+00  2.4870262575185125e+00  2.4608008965990762e+00  2.4357633159138925e+00  2.4121621505388937e+00  2.3906594344015466e+00  2.3725842533521395e+00  2.3600128587567464e+00  2.3559370021286949e+00  3.9311024675502049e+00  3.9269908169872334e+00  3.9147960879123476e+00  3.8970185423314434e+00  3.8756498940938071e+00  3.8520508516033494e+00  3.8269302040585309e+00  3.8005698716454908e+00  3.7730463244798722e+00  3.7443615503375791e+00  3.7144992135229162e+00  3.6834437665874042e+00  3.6511864118531965e+00  3.6177275095643671e+00  3.5830782216664145e+00  3.5472619742492695e+00  3.5103157772772056e+00  3.4722913270843745e+00  3.4332557938312411e+00  3.3932921937397658e+00  3.3524992550680066e+00  3.3109907073751419e+00  3.2688939555782919e+00  3.2263481418500635e+00  3.1835016458401912e+00  3.1405091216627201e+00  3.0975282123266576e+00  3.0547161127956666e+00  3.0122261670820474e+00  2.9702046805800029e+00  2.9287881069819930e+00  2.8881007330627915e+00  2.8482529397456160e+00  2.8093400703582363e+00  2.7714418926296616e+00  2.7346226042392385e+00  2.6989313052611328e+00  2.6644028454453581e+00  2.6310589493323122e+00  2.5989095274268759e+00  2.5679541064062730e+00  2.5381834247586474e+00  2.5095817841234398e+00  2.4821329517309305e+00  2.4558392164164036e+00  2.4307774984053512e+00  2.4072302634206868e+00  2.3859068202023512e+00  2.3681680096229893e+00  2.3560043146389087e+00  2.3519138115577487e+00  3.9437211953698785e+00  3.9391855460621130e+00  3.9269908169872334e+00  3.9092789916172590e+00  3.8879523472180741e+00  3.8643400522649807e+00  3.8391519965191812e+00  3.8126767072300227e+00  3.7849930498330062e+00  3.7561012804367646e+00  3.7259813400812334e+00  3.6946133547708118e+00  3.6619842139120808e+00  3.6280902792579508e+00  3.5929392599391963e+00  3.5565519109233676e+00  3.5189636021064330e+00  3.4802256723147060e+00  3.4404064517408308e+00  3.3995918297506194e+00  3.3578852522637885e+00  3.3154070546742607e+00  3.2722930731010282e+00  3.2286925269576656e+00  3.1847652249439120e+00  3.1406782076578352e+00  3.0966019946908099e+00  3.0527066440045778e+00  3.0091578502072216e+00  2.9661133030254874e+00  2.9237194988768507e+00  2.8821091518288506e+00  2.8413992928590788e+00  2.8016900865817256e+00  2.7630643401007449e+00  2.7255876349726655e+00  2.6893089833865718e+00  2.6542618940441782e+00  2.6204657304971346e+00  2.5879272539456002e+00  2.5566422741657400e+00  2.5265974647214149e+00  2.4977730075055260e+00  2.4701491084927394e+00  2.4437264419922817e+00  2.4185843986219293e+00  2.3950120899985254e+00  2.3737199448636952e+00  2.3560373382471309e+00  2.3438657592678043e+00  2.3393464563291437e+00  3.9618539634681005e+00  3.9569630916430181e+00  3.9447026423572020e+00  3.9269908169872334e+00  3.9056605023731801e+00  3.8820044427718630e+00  3.8567200237008779e+00  3.8300910921783298e+00  3.8021920094808959e+00  3.7730171598502342e+00  3.7425397333655415e+00  3.7107328309492025e+00  3.6775764508046040e+00  3.6430605248071681e+00  3.6071871324295377e+00  3.5699725756980714e+00  3.5314493558433049e+00  3.4916679443267427e+00  3.4506982002642470e+00  3.4086302721857731e+00  3.3655748253081863e+00  3.3216624585113013e+00  3.2770422199843412e+00  3.2318791956891948e+00  3.1863512246852728e+00  3.1406448801619056e+00  3.0949509322224156e+00  3.0494595653740788e+00  3.0043556503860769e+00  2.9598143620230024e+00  2.9159973929220526e+00  2.8730499472472997e+00  2.8310986172925725e+00  2.7902501645341622e+00  2.7505911547122222e+00  2.7121883417830195e+00  2.6750896612823785e+00  2.6393256792610860e+00  2.6049113454944424e+00  2.5718479165055985e+00  2.5401249547946891e+00  2.5097224570510135e+00  2.4806138044543435e+00  2.4527726697017833e+00  2.4261940543003071e+00  2.4009530172824753e+00  2.3773341322552612e+00  2.3560354415633595e+00  2.3383500299564979e+00  2.3261102521137671e+00  2.3212337890663068e+00  3.9834234136530826e+00  3.9783317398806548e+00  3.9660292867563873e+00  3.9483211316012805e+00  3.9269908169872334e+00  3.9032983252023228e+00  3.8779237798347710e+00  3.8511405982926199e+00  3.8230143995727812e+00  3.7935306843942542e+00  3.7626533634706618e+00  3.7303460612687869e+00  3.6965794051754934e+00  3.6613344269821098e+00  3.6246052149730486e+00  3.5864015003484253e+00  3.5467512034431605e+00  3.5057028026534489e+00  3.4633273339046404e+00  3.4197198015272137e+00  3.3749997762248238e+00  3.3293109782918280e+00  3.2828196991878982e+00  3.2357120017616361e+00  3.1881897515941722e+00  3.1404656547231435e+00  3.0927575909633696e+00  3.0452826168023983e+00  2.9982510512608345e+00  2.9518610446305984e+00  2.9062939668124725e+00  2.8617108519426697e+00  2.8182500180008896e+00  2.7760258640155571e+00  2.7351287496737595e+00  2.6956257926080651e+00  2.6575623804129704e+00  2.6209641848307363e+00  2.5858394784160970e+00  2.5521815836338795e+00  2.5199713381992384e+00  2.4891796193855749e+00  2.4597706236759489e+00  2.4317090483048336e+00  2.4049813064235575e+00  2.3796539865261988e+00  2.3560014707999946e+00  2.3347047374462067e+00  2.3170242619759271e+00  2.3047431390865958e+00  2.2996658262945209e+00  4.0071006809520915e+00  4.0019307823711125e+00  3.9896415817094808e+00  3.9719771912025994e+00  3.9506833087721382e+00  3.9269908169872334e+00  3.9015610415989448e+00  3.8746541915099986e+00  3.8463245953885918e+00  3.8165466086816098e+00  3.7852726162963379e+00  3.7524543704762849e+00  3.7180505507417219e+00  3.6820305770381765e+00  3.6443777962245472e+00  3.6050927189064663e+00  3.5641963150612090e+00  3.5217331960761125e+00  3.4777744338961556e+00  3.4324197193011927e+00  3.3857985395587504e+00  3.3380700726014676e+00  3.2894215607254913e+00  3.2400650443214576e+00  3.1902324966094890e+00  3.1401695824537095e+00  3.0901284371232514e+00  3.0403599907052596e+00  2.9911064235968237e+00  2.9425943155228595e+00  2.8950289506801754e+00  2.8485900871478327e+00  2.8034293213432031e+00  2.7596690101523782e+00  2.7174025791334824e+00  2.6766959579903999e+00  2.6375898457513101e+00  2.6001025104183939e+00  2.5642328595447763e+00  2.5299635685105542e+00  2.4972641259956836e+00  2.4660938296677406e+00  2.4364054255944607e+00  2.4081525208934789e+00  2.3813108048388578e+00  2.3559359640385078e+00  2.3322895150440042e+00  2.3110339219542642e+00  2.2934007578010247e+00  2.2811353139484898e+00  2.2759809715605921e+00  4.0322243461352123e+00  4.0270514299159323e+00  4.0148296374552812e+00  3.9972616102735841e+00  3.9760578541396905e+00  3.9524205923755158e+00  3.9269908169872334e+00  3.9000135545619448e+00  3.8715298976324126e+00  3.8415010562294825e+00  3.8098656671875846e+00  3.7765610743899489e+00  3.7415311447194770e+00  3.7047305342632426e+00  3.6661285017590788e+00  3.6257129444804499e+00  3.5834946528678890e+00  3.5395115745797634e+00  3.4938327688142130e+00  3.4465616473280209e+00  3.3978380457295185e+00  3.3478386690477575e+00  3.2967755297823991e+00  3.2448921542908793e+00  3.1924575654042711e+00  3.1397583241142590e+00  3.0870891809250680e+00  3.0347430911218090e+00  2.9830014408707162e+00  2.9321252911341391e+00  2.8823482848004280e+00  2.8338716186466657e+00  2.7868612102967751e+00  2.7414469439603963e+00  2.6977236948644276e+00  2.6557537269564646e+00  2.6155700280101040e+00  2.5771801740372973e+00  2.5405703793681895e+00  2.5057094713649328e+00  2.4725526283218890e+00  2.4410449109884556e+00  2.4111252834754784e+00  2.3827342300320762e+00  2.3558348840831069e+00  2.3304702295004187e+00  2.3068870656935760e+00  2.2857279058024056e+00  2.2681959297561036e+00  2.2560013001138421e+00  2.2508458646140825e+00  4.0585463922654137e+00  4.0534117623289712e+00  4.0413049267444405e+00  4.0238905417961330e+00  4.0028410356818425e+00  3.9793274424644629e+00  3.9539680794125158e+00  3.9269908169872334e+00  3.8984216786441444e+00  3.8682067410313841e+00  3.8362685477547802e+00  3.8025272314219927e+00  3.7669085535977174e+00  3.7293486461463288e+00  3.6897985338949040e+00  3.6482291267772760e+00  3.6046366795285762e+00  3.5590484782312841e+00  3.5115283548230471e+00  3.4621814886707267e+00  3.4111578454189346e+00  3.3586535655060588e+00  3.3049096874208681e+00  3.2502077988534421e+00  3.1948625468177623e+00  3.1392113597740798e+00  3.0836021584935658e+00  3.0283801594997626e+00  2.9738750222831811e+00  2.9203895209690480e+00  2.8681906536418689e+00  2.8175037097284239e+00  2.7685093935100782e+00  2.7213437379262659e+00  2.6761002936666718e+00  2.6328339607839073e+00  2.5915658273395308e+00  2.5522884571424287e+00  2.5149711881986794e+00  2.4795651349861623e+00  2.4460077240269138e+00  2.4142268062946663e+00  2.3841450580908488e+00  2.3556877573289503e+00  2.3288037153539030e+00  2.3035215629086432e+00  2.2800715554799975e+00  2.2590740295013632e+00  2.2417013257849949e+00  2.2296256388552638e+00  2.2245108149264676e+00  4.0860064614007578e+00  4.0809353094945910e+00  4.0689885841414561e+00  4.0517896244935656e+00  4.0309672344016798e+00  4.0076570385858714e+00  3.9824517363420489e+00  3.9555599553303162e+00  3.9269908169872338e+00  3.8966732282493060e+00  3.8645111337367668e+00  3.8304043381250885e+00  3.7942566984063539e+00  3.7559813251890981e+00  3.7155058705751043e+00  3.6727786305269960e+00  3.6277754896777794e+00  3.5805074560268055e+00  3.5310283060481695e+00  3.4794416282261520e+00  3.4259063459710313e+00  3.3706396831220800e+00  3.3139165805560760e+00  3.2560648378081183e+00  3.1974557474337995e+00  3.1384906476125893e+00  3.0795845035983489e+00  3.0211481671210629e+00  2.9635712035290762e+00  2.9072070499787426e+00  2.8523618150419132e+00  2.7992873838954391e+00  2.7481788256787154e+00  2.6991755592308100e+00  2.6523654035250606e+00  2.6077905290706607e+00  2.5654543910330698e+00  2.5253288947060857e+00  2.4873612533690364e+00  2.4514802014346055e+00  2.4176014096570464e+00  2.3856321871154065e+00  2.3554762203519188e+00  2.3270414263894219e+00  2.3002605450753402e+00  2.2751462489803504e+00  2.2519103399567055e+00  2.2311481685698489e+00  2.2139971129369220e+00  2.2020859109622033e+00  2.1970371168622873e+00  4.1146075597660312e+00  4.1096200836368872e+00  4.0978803535376978e+00  4.0809644741242277e+00  4.0604509495802077e+00  4.0374350252928517e+00  4.0124805777449790e+00  3.9857748929430774e+00  3.9573084057251551e+00  3.9269908169872334e+00  3.8947048514794349e+00  3.8603265809627882e+00  3.8237336356998521e+00  3.7848107874433752e+00  3.7434560034187814e+00  3.6995877822187988e+00  3.6531538800394965e+00  3.6041412078736719e+00  3.5525863605149426e+00  3.4985858677163097e+00  3.4423048833778243e+00  3.3839827532941040e+00  3.3239338605209907e+00  3.2625424627968971e+00  3.2002509566584934e+00  3.1375420436313695e+00  3.0749164062880379e+00  3.0128684116751501e+00  2.9518627641389763e+00  2.8923147991272629e+00  2.8345763248663531e+00  2.7789278333186678e+00  2.7255768303168328e+00  2.6746612310073172e+00  2.6262563493268565e+00  2.5803839597453089e+00  2.5370221179317425e+00  2.4961147616681361e+00  2.4575804644914117e+00  2.4213200166879227e+00  2.3872227479643970e+00  2.3551717636686997e+00  2.3250489179022944e+00  2.2967426046996144e+00  2.2701678181061915e+00  2.2453197660498869e+00  2.2223899068266970e+00  2.2019455537201331e+00  2.1850842604855298e+00  2.1733847011599177e+00  2.1684222637697439e+00  4.1443663040094245e+00  4.1394824204515492e+00  4.1280002938932308e+00  4.1114419006089200e+00  4.0913282705037979e+00  4.0687090176781240e+00  4.0441159667868751e+00  4.0177130862196790e+00  3.9894705002376933e+00  3.9592767824950252e+00  3.9269908169872334e+00  3.8924613482800390e+00  3.8555349917403228e+00  3.8160620203976507e+00  3.7739030848121491e+00  3.7289378246103673e+00  3.6810756448987791e+00  3.6302685602594216e+00  3.5765255737568351e+00  3.5199274862498688e+00  3.4606403794863372e+00  3.3989254424717878e+00  3.3351425543653899e+00  3.2697453543339012e+00  3.2032665676999579e+00  3.1362940267119792e+00  3.0694397380697040e+00  3.0033059272265126e+00  2.9384526898478311e+00  2.8753714541362125e+00  2.8144670674016155e+00  2.7560494591671967e+00  2.7003340887045235e+00  2.6474491939684839e+00  2.5974473776760743e+00  2.5503191934690879e+00  2.5060068917495530e+00  2.4644171038235845e+00  2.4254318091625331e+00  2.3889173610527212e+00  2.3547316399846525e+00  2.3227296641154478e+00  2.2927686001669412e+00  2.2647152791887857e+00  2.2384654705124434e+00  2.2139956216498922e+00  2.1914751096918565e+00  2.1714401511387091e+00  2.1549433407393797e+00  2.1435061904615460e+00  2.1386500764738443e+00  4.1752970492845511e+00  4.1705378673870603e+00  4.1593682792036502e+00  4.1432488030252594e+00  4.1236355727056768e+00  4.1015272634981761e+00  4.0774205595845112e+00  4.0514544025524666e+00  4.0235772958493730e+00  3.9936550530116719e+00  3.9615202856944212e+00  3.9269908169872334e+00  3.8898771522898166e+00  3.8499881448021149e+00  3.8071381123871522e+00  3.7611566016998759e+00  3.7119013685485758e+00  3.6592747588125851e+00  3.6032431162949865e+00  3.5438579961035086e+00  3.4812768675225172e+00  3.4157798688390644e+00  3.3477784408949556e+00  3.2778118335268522e+00  3.2065289379641113e+00  3.1346556052209897e+00  3.0629509172143297e+00  2.9921586869954027e+00  2.9229617125545433e+00  2.8559455052435756e+00  2.7915756965320146e+00  2.7301900737412614e+00  2.6720033206441558e+00  2.6171207964692820e+00  2.5655572473268915e+00  2.5172569006827823e+00  2.4721124415125355e+00  2.4299814621173113e+00  2.3906998530082997e+00  2.3540921786522579e+00  2.3199794042731079e+00  2.2881845607146287e+00  2.2585374694156326e+00  2.2308816740229571e+00  2.2050926044774499e+00  2.1811270078403697e+00  2.1591307295519346e+00  2.1396059781101529e+00  2.1235552016215480e+00  2.1124354093542044e+00  2.1077066887217906e+00  4.2074070876219585e+00  4.2027952221212672e+00  4.1919974200623837e+00  4.1764051831698579e+00  4.1574022287989703e+00  4.1359310832327383e+00  4.1124504892549831e+00  4.0870730803767445e+00  4.0597249355681067e+00  4.0302479982746080e+00  3.9984466422341378e+00  3.9641044816846436e+00  3.9269908169872334e+00  3.8868656493302893e+00  3.8434866656731481e+00  3.7966197383951941e+00  3.7460539924171723e+00  3.6916221698635279e+00  3.6332263811423657e+00  3.5708681488186058e+00  3.5046798861817812e+00  3.4349528609987732e+00  3.3621549491132794e+00  3.2869311026516348e+00  3.2100813896058837e+00  3.1325158893741278e+00  3.0551915691536560e+00  2.9790413979405934e+00  2.9049082363258920e+00  2.8334944990853077e+00  2.7653339369108716e+00  2.7007860986293277e+00  2.6400492541856648e+00  2.5831850788746098e+00  2.5301483025199083e+00  2.4808160252419018e+00  2.4350134652538609e+00  2.3925347578110792e+00  2.3531587105336365e+00  2.3166601198019747e+00  2.2828175261405463e+00  2.2514183845182680e+00  2.2222630133950969e+00  2.1951705208502257e+00  2.1699954613060148e+00  2.1466744699558622e+00  2.1253288410226734e+00  2.1064241453082015e+00  2.0909075862814630e+00  2.0801642297641885e+00  2.0755853699266282e+00  4.2406945890457388e+00  4.2362541244100971e+00  4.2258913547165138e+00  4.2109211091672938e+00  4.1926472069923530e+00  4.1719510569362841e+00  4.1492510997112184e+00  4.1246329878281340e+00  4.0980003087853616e+00  4.0691708465310867e+00  4.0379196135768103e+00  4.0039934891723457e+00  3.9671159846441708e+00  3.9269908169872334e+00  3.8833078623997479e+00  3.8357534992939457e+00  3.7840271198783282e+00  3.7278654872818109e+00  3.6670760363343522e+00  3.6015787245022128e+00  3.5314533491855085e+00  3.4569855117634107e+00  3.3787006201412817e+00  3.2973734315915073e+00  3.2140028644407690e+00  3.1297490843551872e+00  3.0458404199310984e+00  2.9634672656937586e+00  2.8836843793573239e+00  2.8073399604589855e+00  2.7350411465805107e+00  2.6671551291626097e+00  2.6038371038086718e+00  2.5450729332612134e+00  2.4907253837518026e+00  2.4405762341000790e+00  2.3943604240918006e+00  2.3517914207348651e+00  2.3125787418707158e+00  2.2764392780813787e+00  2.2431041045678666e+00  2.2123223002544989e+00  2.1838634294113541e+00  2.1575219197862037e+00  2.1331317466383450e+00  2.1106097446473737e+00  2.0900522205774337e+00  2.0718858910305897e+00  2.0569978359463303e+00  2.0466937655147470e+00  2.0422885752445303e+00  4.2751470861050720e+00  4.2709034123080523e+00  4.2610423740352665e+00  4.2467945015449242e+00  4.2293764190014143e+00  4.2096038377499152e+00  4.1878531322153831e+00  4.1641831000795593e+00  4.1384757633993567e+00  4.1105256305556805e+00  4.0800785491623133e+00  4.0468435215873075e+00  4.0104949683013125e+00  3.9706737715747122e+00  3.9269908169872334e+00  3.8790355875208804e+00  3.8263925771598304e+00  3.7686686910415386e+00  3.7055346324662657e+00  3.6367817429234357e+00  3.5623920055778067e+00  3.4826125807042816e+00  3.3980184763858889e+00  3.3095413253031056e+00  3.2184438167671585e+00  3.1262312817679256e+00  3.0345114462108653e+00  2.9448317720943922e+00  2.8585317895541000e+00  2.7766417651279274e+00  2.6998422918952389e+00  2.6284803696260974e+00  2.5626242401164436e+00  2.5021352866444819e+00  2.4467390210727560e+00  2.3960844257740388e+00  2.3497878523207629e+00  2.3074623356251780e+00  2.2687353412481071e+00  2.2332583446955643e+00  2.2007111343605485e+00  2.1708030391410356e+00  2.1432730294090963e+00  2.1178918923101655e+00  2.0944744312113661e+00  2.0729189156401873e+00  2.0532969631130116e+00  2.0359947612400644e+00  2.0218347352124275e+00  2.0120359906438510e+00  2.0078294385401452e+00  4.3107400989866642e+00  4.3067196597251938e+00  4.2974297230510956e+00  4.2840090582763919e+00  4.2675801336260379e+00  4.2488889150679947e+00  4.2282686894940120e+00  4.2057525071971851e+00  4.1812030034474681e+00  4.1543938517556631e+00  4.1250438093640946e+00  4.0928250322745869e+00  4.0573618955792679e+00  4.0182281346805127e+00  3.9749460464535717e+00  3.9269908169872054e+00  3.8738039123336789e+00  3.8148207963312952e+00  3.7495191651415705e+00  3.6774931136768858e+00  3.5985542179163117e+00  3.5128505268594385e+00  3.4209793218208975e+00  3.3240551241938325e+00  3.2236921545963373e+00  3.1218797907032778e+00  3.0207666409296654e+00  2.9224050680547444e+00  2.8285230172564244e+00  2.7403775976336742e+00  2.6587120095237666e+00  2.5838024897605902e+00  2.5155601840929878e+00  2.4536497757108715e+00  2.3975965894517075e+00  2.3468681932443611e+00  2.3009283913195899e+00  2.2592682672462088e+00  2.2214210775500738e+00  2.1869671692710404e+00  2.1555334429843600e+00  2.1267903127297005e+00  2.1004483021713356e+00  2.0762572862200712e+00  2.0540156892594355e+00  2.0336055599808462e+00  2.0150749912802901e+00  1.9987686220854974e+00  1.9854401612134629e+00  1.9762151626433690e+00  1.9722331141886540e+00  4.3474359016053832e+00  4.3436658566972586e+00  4.3350180318680289e+00  4.3225322781311553e+00  4.3072304305313009e+00  4.2897853189132515e+00  4.2704869811065702e+00  4.2493449544458857e+00  4.2262061442966825e+00  4.2008277539349645e+00  4.1729059890756810e+00  4.1420802654258839e+00  4.1079276415572901e+00  4.0699545140961284e