<?xml version="1.0"?>
<VTKFile type="UnstructuredGrid"  version="0.1"  >
<UnstructuredGrid>
<Piece  NumberOfPoints="49" NumberOfCells="72">
<Points>
<DataArray  type="Float64"  NumberOfComponents="3"  format="ascii">0 0 0  0.1666666666666667 0 0  0.3333333333333333 0 0  0.5 0 0  0.6666666666666666 0 0  0.8333333333333334 0 0  1 0 0  0 0.1666666666666667 0  0.1666666666666667 0.1666666666666667 0  0.3333333333333333 0.1666666666666667 0  0.5 0.1666666666666667 0  0.6666666666666666 0.1666666666666667 0  0.8333333333333334 0.1666666666666667 0  1 0.1666666666666667 0  0 0.3333333333333333 0  0.1666666666666667 0.3333333333333333 0  0.3333333333333333 0.3333333333333333 0  0.5 0.3333333333333333 0  0.6666666666666666 0.3333333333333333 0  0.8333333333333334 0.3333333333333333 0  1 0.3333333333333333 0  0 0.5 0  0.1666666666666667 0.5 0  0.3333333333333333 0.5 0  0.5 0.5 0  0.6666666666666666 0.5 0  0.8333333333333334 0.5 0  1 0.5 0  0 0.6666666666666666 0  0.1666666666666667 0.6666666666666666 0  0.3333333333333333 0.6666666666666666 0  0.5 0.6666666666666666 0  0.6666666666666666 0.6666666666666666 0  0.8333333333333334 0.6666666666666666 0  1 0.6666666666666666 0  0 0.8333333333333334 0  0.1666666666666667 0.8333333333333334 0  0.3333333333333333 0.8333333333333334 0  0.5 0.8333333333333334 0  0.6666666666666666 0.8333333333333334 0  0.8333333333333334 0.8333333333333334 0  1 0.8333333333333334 0  0 1 0  0.1666666666666667 1 0  0.3333333333333333 1 0  0.5 1 0  0.6666666666666666 1 0  0.8333333333333334 1 0  1 1 0  </DataArray>
</Points>
<Cells>
<DataArray  type="UInt32"  Name="connectivity"  format="ascii">0 1 8  0 7 8  1 2 9  1 8 9  2 3 10  2 9 10  3 4 11  3 10 11  4 5 12  4 11 12  5 6 13  5 12 13  7 8 15  7 14 15  8 9 16  8 15 16  9 10 17  9 16 17  10 11 18  10 17 18  11 12 19  11 18 19  12 13 20  12 19 20  14 15 22  14 21 22  15 16 23  15 22 23  16 17 24  16 23 24  17 18 25  17 24 25  18 19 26  18 25 26  19 20 27  19 26 27  21 22 29  21 28 29  22 23 30  22 29 30  23 24 31  23 30 31  24 25 32  24 31 32  25 26 33  25 32 33  26 27 34  26 33 34  28 29 36  28 35 36  29 30 37  29 36 37  30 31 38  30 37 38  31 32 39  31 38 39  32 33 40  32 39 40  33 34 41  33 40 41  35 36 43  35 42 43  36 37 44  36 43 44  37 38 45  37 44 45  38 39 46  38 45 46  39 40 47  39 46 47  40 41 48  40 47 48  </DataArray>
<DataArray  type="UInt32"  Name="offsets"  format="ascii">3 6 9 12 15 18 21 24 27 30 33 36 39 42 45 48 51 54 57 60 63 66 69 72 75 78 81 84 87 90 93 96 99 102 105 108 111 114 117 120 123 126 129 132 135 138 141 144 147 150 153 156 159 162 165 168 171 174 177 180 183 186 189 192 195 198 201 204 207 210 213 216 </DataArray>
<DataArray  type="UInt8"  Name="types"  format="ascii">5 5 5 5 5 5 5 5 5 5 5 5 5 5 5 5 5 5 5 5 5 5 5 5 5 5 5 5 5 5 5 5 5 5 5 5 5 5 5 5 5 5 5 5 5 5 5 5 5 5 5 5 5 5 5 5 5 5 5 5 5 5 5 5 5 5 5 5 5 5 5 5 </DataArray>
</Cells>
<PointData  Scalars="f_19"> 
<DataArray  type="Float64"  Name="f_19"  format="ascii">3.9269908169872414e+00  4.1223666693437604e+00  4.3893458859875976e+00  4.7120366666653144e+00  5.0346636245531231e+00  5.3015768282007905e+00  5.4973471864552135e+00  3.7316149646307215e+00  3.9269908182576341e+00  4.2487856211026918e+00  4.7126509970079553e+00  5.1763369130221282e+00  5.4978301743443572e+00  5.6931195298392616e+00  3.4646357479868857e+00  3.6051958033795217e+00  3.9269890651037871e+00  4.7137357833791249e+00  5.4980943007587069e+00  5.8196229768521706e+00  5.9600579926703565e+00  3.1419449673091684e+00  3.1413322695092747e+00  3.1412569953357359e+00  3.1435915576913098e+00  6.2831853071795862e+00  6.2831853071795862e+00  6.2827274134866649e+00  2.8193180094213592e+00  2.6776447209523546e+00  2.3558920643627674e+00  1.5697493353461713e+00  7.8538860810067679e-01  4.6380545879542462e-01  3.2217169273569618e-01  2.5524048057736919e+00  2.3561514596301252e+00  2.0343611551678715e+00  1.5706554198543703e+00  1.1069897104507609e+00  7.8539816467749990e-01  5.8913322931652434e-01  2.3566344475192698e+00  2.1608621041352221e+00  1.8939208883155731e+00  1.5712533267016040e+00  1.2486251396227779e+00  9.8166309747837222e-01  7.8539816339744828e-01  </DataArray> 
</PointData> 
</Piece>
</UnstructuredGrid>
</VTKFile>