<?xml version="1.0"?>
<VTKFile type="UnstructuredGrid"  version="0.1"  >
<UnstructuredGrid>
<Piece  NumberOfPoints="64" NumberOfCells="98">
<Points>
<DataArray  type="Float64"  NumberOfComponents="3"  format="ascii">0 0 0  0.1428571428571428 0 0  0.2857142857142857 0 0  0.4285714285714285 0 0  0.5714285714285714 0 0  0.7142857142857143 0 0  0.8571428571428571 0 0  1 0 0  0 0.1428571428571428 0  0.1428571428571428 0.1428571428571428 0  0.2857142857142857 0.1428571428571428 0  0.4285714285714285 0.1428571428571428 0  0.5714285714285714 0.1428571428571428 0  0.7142857142857143 0.1428571428571428 0  0.8571428571428571 0.1428571428571428 0  1 0.1428571428571428 0  0 0.2857142857142857 0  0.1428571428571428 0.2857142857142857 0  0.2857142857142857 0.2857142857142857 0  0.4285714285714285 0.2857142857142857 0  0.5714285714285714 0.2857142857142857 0  0.7142857142857143 0.2857142857142857 0  0.8571428571428571 0.2857142857142857 0  1 0.2857142857142857 0  0 0.4285714285714285 0  0.1428571428571428 0.4285714285714285 0  0.2857142857142857 0.4285714285714285 0  0.4285714285714285 0.4285714285714285 0  0.5714285714285714 0.4285714285714285 0  0.7142857142857143 0.4285714285714285 0  0.8571428571428571 0.4285714285714285 0  1 0.4285714285714285 0  0 0.5714285714285714 0  0.1428571428571428 0.5714285714285714 0  0.2857142857142857 0.5714285714285714 0  0.4285714285714285 0.5714285714285714 0  0.5714285714285714 0.5714285714285714 0  0.7142857142857143 0.5714285714285714 0  0.8571428571428571 0.5714285714285714 0  1 0.5714285714285714 0  0 0.7142857142857143 0  0.1428571428571428 0.7142857142857143 0  0.2857142857142857 0.7142857142857143 0  0.4285714285714285 0.7142857142857143 0  0.5714285714285714 0.7142857142857143 0  0.7142857142857143 0.7142857142857143 0  0.8571428571428571 0.7142857142857143 0  1 0.7142857142857143 0  0 0.8571428571428571 0  0.1428571428571428 0.8571428571428571 0  0.2857142857142857 0.8571428571428571 0  0.4285714285714285 0.8571428571428571 0  0.5714285714285714 0.8571428571428571 0  0.7142857142857143 0.8571428571428571 0  0.8571428571428571 0.8571428571428571 0  1 0.8571428571428571 0  0 1 0  0.1428571428571428 1 0  0.2857142857142857 1 0  0.4285714285714285 1 0  0.5714285714285714 1 0  0.7142857142857143 1 0  0.8571428571428571 1 0  1 1 0  </DataArray>
</Points>
<Cells>
<DataArray  type="UInt32"  Name="connectivity"  format="ascii">0 1 9  0 8 9  1 2 10  1 9 10  2 3 11  2 10 11  3 4 12  3 11 12  4 5 13  4 12 13  5 6 14  5 13 14  6 7 15  6 14 15  8 9 17  8 16 17  9 10 18  9 17 18  10 11 19  10 18 19  11 12 20  11 19 20  12 13 21  12 20 21  13 14 22  13 21 22  14 15 23  14 22 23  16 17 25  16 24 25  17 18 26  17 25 26  18 19 27  18 26 27  19 20 28  19 27 28  20 21 29  20 28 29  21 22 30  21 29 30  22 23 31  22 30 31  24 25 33  24 32 33  25 26 34  25 33 34  26 27 35  26 34 35  27 28 36  27 35 36  28 29 37  28 36 37  29 30 38  29 37 38  30 31 39  30 38 39  32 33 41  32 40 41  33 34 42  33 41 42  34 35 43  34 42 43  35 36 44  35 43 44  36 37 45  36 44 45  37 38 46  37 45 46  38 39 47  38 46 47  40 41 49  40 48 49  41 42 50  41 49 50  42 43 51  42 50 51  43 44 52  43 51 52  44 45 53  44 52 53  45 46 54  45 53 54  46 47 55  46 54 55  48 49 57  48 56 57  49 50 58  49 57 58  50 51 59  50 58 59  51 52 60  51 59 60  52 53 61  52 60 61  53 54 62  53 61 62  54 55 63  54 62 63  </DataArray>
<DataArray  type="UInt32"  Name="offsets"  format="ascii">3 6 9 12 15 18 21 24 27 30 33 36 39 42 45 48 51 54 57 60 63 66 69 72 75 78 81 84 87 90 93 96 99 102 105 108 111 114 117 120 123 126 129 132 135 138 141 144 147 150 153 156 159 162 165 168 171 174 177 180 183 186 189 192 195 198 201 204 207 210 213 216 219 222 225 228 231 234 237 240 243 246 249 252 255 258 261 264 267 270 273 276 279 282 285 288 291 294 </DataArray>
<DataArray  type="UInt8"  Name="types"  format="ascii">5 5 5 5 5 5 5 5 5 5 5 5 5 5 5 5 5 5 5 5 5 5 5 5 5 5 5 5 5 5 5 5 5 5 5 5 5 5 5 5 5 5 5 5 5 5 5 5 5 5 5 5 5 5 5 5 5 5 5 5 5 5 5 5 5 5 5 5 5 5 5 5 5 5 5 5 5 5 5 5 5 5 5 5 5 5 5 5 5 5 5 5 5 5 5 5 5 5 </DataArray>
</Cells>
<PointData  Scalars="f_21"> 
<DataArray  type="Float64"  Name="f_21"  format="ascii">6.0844237662374390e-01  5.4671606979992904e-01  4.9568831371103794e-01  2.2975286628690550e-01  4.7729836019537736e-01  4.9532361969356409e-01  5.4670889952805424e-01  6.0843320464117356e-01  5.4671627366990738e-01  4.6608924681698849e-01  3.9463855198682618e-01  1.3516923763388897e-01  4.2031198621541455e-01  3.9360616576831259e-01  4.6604576686835880e-01  5.4669273585440514e-01  4.9535390432263016e-01  3.9398582580983071e-01  2.9453104637583810e-01  8.7982379447392928e-02  2.6567427418320544e-01  2.9377952522207795e-01  3.9388017660281566e-01  4.9532684600778565e-01  4.6538906868630481e-01  3.4895246941531549e-01  2.2242378809705571e-01  6.4056040726574490e-02  1.2007567116276004e-01  2.2180772979995117e-01  3.4878991237309342e-01  4.6537400918992150e-01  4.6538388047062873e-01  3.4889613249004142e-01  2.2201160085597127e-01  9.9703805643639315e-02  1.0172005523260255e-01  2.2221852572564343e-01  3.4882291240495639e-01  4.6540252307224739e-01  4.9534600483020047e-01  3.9391700165040622e-01  2.9397450095606081e-01  2.2189650632286839e-01  2.2221628597063012e-01  2.9402336941526952e-01  3.9390680497849490e-01  4.9538312994321887e-01  5.4670888425194930e-01  4.6604530667565047e-01  3.9387989014213431e-01  3.4878978700357594e-01  3.4882291768858481e-01  3.9390680490829427e-01  4.6607130758900028e-01  5.4674350353936252e-01  6.0843320464489936e-01  5.4669273608815350e-01  4.9532684615263745e-01  4.6537400925210992e-01  4.6540252306912688e-01  4.9538312994327122e-01  5.4674350353936130e-01  6.0847077811868133e-01  </DataArray> 
</PointData> 
</Piece>
</UnstructuredGrid>
</VTKFile>