<?xml version="1.0"?>
<VTKFile type="UnstructuredGrid"  version="0.1"  >
<UnstructuredGrid>
<Piece  NumberOfPoints="5305" NumberOfCells="10404">
<Points>
<DataArray  type="Float64"  NumberOfComponents="3"  format="ascii">0 0 0  0.196078431372549 0 0  0.392156862745098 0 0  0.5882352941176471 0 0  0.7843137254901961 0 0  0.9803921568627451 0 0  1.176470588235294 0 0  1.372549019607843 0 0  1.568627450980392 0 0  1.764705882352941 0 0  1.96078431372549 0 0  2.156862745098039 0 0  2.352941176470588 0 0  2.549019607843137 0 0  2.745098039215686 0 0  2.941176470588236 0 0  3.137254901960784 0 0  3.333333333333333 0 0  3.529411764705882 0 0  3.725490196078431 0 0  3.92156862745098 0 0  4.117647058823529 0 0  4.313725490196078 0 0  4.509803921568627 0 0  4.705882352941177 0 0  4.901960784313726 0 0  5.098039215686274 0 0  5.294117647058823 0 0  5.490196078431373 0 0  5.686274509803922 0 0  5.882352941176471 0 0  6.078431372549019 0 0  6.274509803921569 0 0  6.470588235294118 0 0  6.666666666666667 0 0  6.862745098039215 0 0  7.058823529411764 0 0  7.254901960784314 0 0  7.450980392156863 0 0  7.647058823529412 0 0  7.84313725490196 0 0  8.03921568627451 0 0  8.235294117647058 0 0  8.431372549019608 0 0  8.627450980392156 0 0  8.823529411764707 0 0  9.019607843137255 0 0  9.215686274509803 0 0  9.411764705882353 0 0  9.607843137254902 0 0  9.803921568627452 0 0  10 0 0  0 0.196078431372549 0  0.196078431372549 0.196078431372549 0  0.392156862745098 0.196078431372549 0  0.5882352941176471 0.196078431372549 0  0.7843137254901961 0.196078431372549 0  0.9803921568627451 0.196078431372549 0  1.176470588235294 0.196078431372549 0  1.372549019607843 0.196078431372549 0  1.568627450980392 0.196078431372549 0  1.764705882352941 0.196078431372549 0  1.96078431372549 0.196078431372549 0  2.156862745098039 0.196078431372549 0  2.352941176470588 0.196078431372549 0  2.549019607843137 0.196078431372549 0  2.745098039215686 0.196078431372549 0  2.941176470588236 0.196078431372549 0  3.137254901960784 0.196078431372549 0  3.333333333333333 0.196078431372549 0  3.529411764705882 0.196078431372549 0  3.725490196078431 0.196078431372549 0  3.92156862745098 0.196078431372549 0  4.117647058823529 0.196078431372549 0  4.313725490196078 0.196078431372549 0  4.509803921568627 0.196078431372549 0  4.705882352941177 0.196078431372549 0  4.901960784313726 0.196078431372549 0  5.098039215686274 0.196078431372549 0  5.294117647058823 0.196078431372549 0  5.490196078431373 0.196078431372549 0  5.686274509803922 0.196078431372549 0  5.882352941176471 0.196078431372549 0  6.078431372549019 0.196078431372549 0  6.274509803921569 0.196078431372549 0  6.470588235294118 0.196078431372549 0  6.666666666666667 0.196078431372549 0  6.862745098039215 0.196078431372549 0  7.058823529411764 0.196078431372549 0  7.254901960784314 0.196078431372549 0  7.450980392156863 0.196078431372549 0  7.647058823529412 0.196078431372549 0  7.84313725490196 0.196078431372549 0  8.03921568627451 0.196078431372549 0  8.235294117647058 0.196078431372549 0  8.431372549019608 0.196078431372549 0  8.627450980392156 0.196078431372549 0  8.823529411764707 0.196078431372549 0  9.019607843137255 0.196078431372549 0  9.215686274509803 0.196078431372549 0  9.411764705882353 0.196078431372549 0  9.607843137254902 0.196078431372549 0  9.803921568627452 0.196078431372549 0  10 0.196078431372549 0  0 0.392156862745098 0  0.196078431372549 0.392156862745098 0  0.392156862745098 0.392156862745098 0  0.5882352941176471 0.392156862745098 0  0.7843137254901961 0.392156862745098 0  0.9803921568627451 0.392156862745098 0  1.176470588235294 0.392156862745098 0  1.372549019607843 0.392156862745098 0  1.568627450980392 0.392156862745098 0  1.764705882352941 0.392156862745098 0  1.96078431372549 0.392156862745098 0  2.156862745098039 0.392156862745098 0  2.352941176470588 0.392156862745098 0  2.549019607843137 0.392156862745098 0  2.745098039215686 0.392156862745098 0  2.941176470588236 0.392156862745098 0  3.137254901960784 0.392156862745098 0  3.333333333333333 0.392156862745098 0  3.529411764705882 0.392156862745098 0  3.725490196078431 0.392156862745098 0  3.92156862745098 0.392156862745098 0  4.117647058823529 0.392156862745098 0  4.313725490196078 0.392156862745098 0  4.509803921568627 0.392156862745098 0  4.705882352941177 0.392156862745098 0  4.901960784313726 0.392156862745098 0  5.098039215686274 0.392156862745098 0  5.294117647058823 0.392156862745098 0  5.490196078431373 0.392156862745098 0  5.686274509803922 0.392156862745098 0  5.882352941176471 0.392156862745098 0  6.078431372549019 0.392156862745098 0  6.274509803921569 0.392156862745098 0  6.470588235294118 0.392156862745098 0  6.666666666666667 0.392156862745098 0  6.862745098039215 0.392156862745098 0  7.058823529411764 0.392156862745098 0  7.254901960784314 0.392156862745098 0  7.450980392156863 0.392156862745098 0  7.647058823529412 0.392156862745098 0  7.84313725490196 0.392156862745098 0  8.03921568627451 0.392156862745098 0  8.235294117647058 0.392156862745098 0  8.431372549019608 0.392156862745098 0  8.627450980392156 0.392156862745098 0  8.823529411764707 0.392156862745098 0  9.019607843137255 0.392156862745098 0  9.215686274509803 0.392156862745098 0  9.411764705882353 0.392156862745098 0  9.607843137254902 0.392156862745098 0  9.803921568627452 0.392156862745098 0  10 0.392156862745098 0  0 0.5882352941176471 0  0.196078431372549 0.5882352941176471 0  0.392156862745098 0.5882352941176471 0  0.5882352941176471 0.5882352941176471 0  0.7843137254901961 0.5882352941176471 0  0.9803921568627451 0.5882352941176471 0  1.176470588235294 0.5882352941176471 0  1.372549019607843 0.5882352941176471 0  1.568627450980392 0.5882352941176471 0  1.764705882352941 0.5882352941176471 0  1.96078431372549 0.5882352941176471 0  2.156862745098039 0.5882352941176471 0  2.352941176470588 0.5882352941176471 0  2.549019607843137 0.5882352941176471 0  2.745098039215686 0.5882352941176471 0  2.941176470588236 0.5882352941176471 0  3.137254901960784 0.5882352941176471 0  3.333333333333333 0.5882352941176471 0  3.529411764705882 0.5882352941176471 0  3.725490196078431 0.5882352941176471 0  3.92156862745098 0.5882352941176471 0  4.117647058823529 0.5882352941176471 0  4.313725490196078 0.5882352941176471 0  4.509803921568627 0.5882352941176471 0  4.705882352941177 0.5882352941176471 0  4.901960784313726 0.5882352941176471 0  5.098039215686274 0.5882352941176471 0  5.294117647058823 0.5882352941176471 0  5.490196078431373 0.5882352941176471 0  5.686274509803922 0.5882352941176471 0  5.882352941176471 0.5882352941176471 0  6.078431372549019 0.5882352941176471 0  6.274509803921569 0.5882352941176471 0  6.470588235294118 0.5882352941176471 0  6.666666666666667 0.5882352941176471 0  6.862745098039215 0.5882352941176471 0  7.058823529411764 0.5882352941176471 0  7.254901960784314 0.5882352941176471 0  7.450980392156863 0.5882352941176471 0  7.647058823529412 0.5882352941176471 0  7.84313725490196 0.5882352941176471 0  8.03921568627451 0.5882352941176471 0  8.235294117647058 0.5882352941176471 0  8.431372549019608 0.5882352941176471 0  8.627450980392156 0.5882352941176471 0  8.823529411764707 0.5882352941176471 0  9.019607843137255 0.5882352941176471 0  9.215686274509803 0.5882352941176471 0  9.411764705882353 0.5882352941176471 0  9.607843137254902 0.5882352941176471 0  9.803921568627452 0.5882352941176471 0  10 0.5882352941176471 0  0 0.7843137254901961 0  0.196078431372549 0.7843137254901961 0  0.392156862745098 0.7843137254901961 0  0.5882352941176471 0.7843137254901961 0  0.7843137254901961 0.7843137254901961 0  0.9803921568627451 0.7843137254901961 0  1.176470588235294 0.7843137254901961 0  1.372549019607843 0.7843137254901961 0  1.568627450980392 0.7843137254901961 0  1.764705882352941 0.7843137254901961 0  1.96078431372549 0.7843137254901961 0  2.156862745098039 0.7843137254901961 0  2.352941176470588 0.7843137254901961 0  2.549019607843137 0.7843137254901961 0  2.745098039215686 0.7843137254901961 0  2.941176470588236 0.7843137254901961 0  3.137254901960784 0.7843137254901961 0  3.333333333333333 0.7843137254901961 0  3.529411764705882 0.7843137254901961 0  3.725490196078431 0.7843137254901961 0  3.92156862745098 0.7843137254901961 0  4.117647058823529 0.7843137254901961 0  4.313725490196078 0.7843137254901961 0  4.509803921568627 0.7843137254901961 0  4.705882352941177 0.7843137254901961 0  4.901960784313726 0.7843137254901961 0  5.098039215686274 0.7843137254901961 0  5.294117647058823 0.7843137254901961 0  5.490196078431373 0.7843137254901961 0  5.686274509803922 0.7843137254901961 0  5.882352941176471 0.7843137254901961 0  6.078431372549019 0.7843137254901961 0  6.274509803921569 0.7843137254901961 0  6.470588235294118 0.7843137254901961 0  6.666666666666667 0.7843137254901961 0  6.862745098039215 0.7843137254901961 0  7.058823529411764 0.7843137254901961 0  7.254901960784314 0.7843137254901961 0  7.450980392156863 0.7843137254901961 0  7.647058823529412 0.7843137254901961 0  7.84313725490196 0.7843137254901961 0  8.03921568627451 0.7843137254901961 0  8.235294117647058 0.7843137254901961 0  8.431372549019608 0.7843137254901961 0  8.627450980392156 0.7843137254901961 0  8.823529411764707 0.7843137254901961 0  9.019607843137255 0.7843137254901961 0  9.215686274509803 0.7843137254901961 0  9.411764705882353 0.7843137254901961 0  9.607843137254902 0.7843137254901961 0  9.803921568627452 0.7843137254901961 0  10 0.7843137254901961 0  0 0.9803921568627451 0  0.196078431372549 0.9803921568627451 0  0.392156862745098 0.9803921568627451 0  0.5882352941176471 0.9803921568627451 0  0.7843137254901961 0.9803921568627451 0  0.9803921568627451 0.9803921568627451 0  1.176470588235294 0.9803921568627451 0  1.372549019607843 0.9803921568627451 0  1.568627450980392 0.9803921568627451 0  1.764705882352941 0.9803921568627451 0  1.96078431372549 0.9803921568627451 0  2.156862745098039 0.9803921568627451 0  2.352941176470588 0.9803921568627451 0  2.549019607843137 0.9
[...]
<PointData  Scalars="f_13"> 
<DataArray  type="Float64"  Name="f_13"  format="ascii">-2.3560986465549609e+00  -2.3761059587766722e+00  -2.3969132559728439e+00  -2.4185503673449551e+00  -2.4410464369007472e+00  -2.4644294869414249e+00  -2.4887259093794061e+00  -2.5139598811510737e+00  -2.5401527021117944e+00  -2.5673220567790231e+00  -2.5954812052352136e+00  -2.6246381134781509e+00  -2.6547945394935302e+00  -2.6859450981849111e+00  -2.7180763357331834e+00  -2.7511658514847852e+00  -2.7851815123935797e+00  -2.8200808104833115e+00  -2.8558104167407454e+00  -2.8923059842524164e+00  -2.9294922483504560e+00  -2.9672834614496835e+00  -3.0055841850757528e+00  -3.0442904419201406e+00  -3.0832912079771799e+00  -3.1913706173942971e+00  3.1214774083479182e+00  3.0823016034495154e+00  3.0433071522488255e+00  3.0046102172740974e+00  2.9663216499050740e+00  2.9285452096857507e+00  2.8913760814853280e+00  2.8548997336034265e+00  2.8191911360651973e+00  2.7843143356423221e+00  2.7503223645938824e+00  2.7172574450891878e+00  2.6851514413476036e+00  2.6540265066265700e+00  2.6238958717100895e+00  2.5947647245796164e+00  2.5666311364454635e+00  2.5394869962671480e+00  2.5133189234195830e+00  2.4881091355831546e+00  2.4638362557696167e+00  2.4404760483512740e+00  2.4180020789040331e+00  2.3963862965898959e+00  2.3755995407556751e+00  2.3560965860619971e+00  -2.3360875577723550e+00  -2.3560947130531082e+00  -2.3769358787040651e+00  -2.3986450400159813e+00  -2.4212557946348849e+00  -2.4448008962672225e+00  -2.4693117125888460e+00  -2.4948175907283003e+00  -2.5213451257419850e+00  -2.5489173306085013e+00  -2.5775527106381406e+00  -2.6072642509744384e+00  -2.6380583331250542e+00  -2.6699336051240228e+00  -2.7028798397171765e+00  -2.7368768253339022e+00  -2.7718933447103073e+00  -2.8078863046969005e+00  -2.8448000865932523e+00  -2.8825661877487394e+00  -2.9211032206869629e+00  -2.9603173245650614e+00  -3.0001030249815561e+00  -3.0403445525959456e+00  -3.0809176004609218e+00  -3.1905769082021598e+00  3.1206538050534820e+00  3.0798835655659293e+00  3.0393176965341682e+00  2.9990867517165984e+00  2.9593148260037569e+00  2.9201174224437589e+00  2.8815997071073416e+00  2.8438552036496043e+00  2.8069649467082556e+00  2.7709970828362978e+00  2.7360068823062198e+00  2.7020371065479964e+00  2.6691186647591563e+00  2.6372714889393687e+00  2.6065055581515870e+00  2.5768220087251836e+00  2.5482142758412900e+00  2.5206692220593907e+00  2.4941682187021708e+00  2.4686881557721567e+00  2.4442023646943309e+00  2.4206814453916339e+00  2.3980939949352620e+00  2.3764072393391276e+00  2.3555875731429907e+00  2.3360851474259507e+00  -2.3152765085668707e+00  -2.3352494636519672e+00  -2.3560904529657325e+00  -2.3778379949482611e+00  -2.4005305960192853e+00  -2.4242062824291866e+00  -2.4489020315277306e+00  -2.4746530920725958e+00  -2.5014921849611000e+00  -2.5294485788082715e+00  -2.5585470394249015e+00  -2.5888066587592347e+00  -2.6202395774640688e+00  -2.6528496259894312e+00  -2.6866309217798201e+00  -2.7215664742200465e+00  -2.7576268634248473e+00  -2.7947690723079734e+00  -2.8329355616322309e+00  -2.8720536826469205e+00  -2.9120355191451148e+00  -2.9527782383988948e+00  -2.9941650074477795e+00  -3.0360664980301912e+00  -3.0783429622166651e+00  -3.1897134514164387e+00  3.1197596875908582e+00  3.0772599858896008e+00  3.0349917304384202e+00  2.9931023223382507e+00  2.9517312468966352e+00  2.9110075042564088e+00  2.8710475499086030e+00  2.8319538069940382e+00  2.7938137670091088e+00  2.7566996545024711e+00  2.7206685984590004e+00  2.6857632304151471e+00  2.6520126172914829e+00  2.6194334344192352e+00  2.5880312893371271e+00  2.5578021173203553e+00  2.5287335829965505e+00  2.5008064368534431e+00  2.4739957894696021e+00  2.4482722789180862e+00  2.4236031174619006e+00  2.3999530121892172e+00  2.3772849606835877e+00  2.3555609274016800e+00  2.3347424094282521e+00  2.3152736972032550e+00  -2.2936356932127753e+00  -2.3135362494318397e+00  -2.3343384848804853e+00  -2.3560858281708907e+00  -2.3788221609683546e+00  -2.4025913492643793e+00  -2.4274366585415721e+00  -2.4534000377305696e+00  -2.4805212580320979e+00  -2.5088368953286033e+00  -2.5383791495045487e+00  -2.5691745010121005e+00  -2.6012422148872414e+00  -2.6345927154159936e+00  -2.6692258707568310e+00  -2.7051292455755060e+00  -2.7422764000492283e+00  -2.7806253335981714e+00  -2.8201171887582346e+00  -2.8606753414124060e+00  -2.9022050045410426e+00  -2.9445934604432620e+00  -2.9877110088668477e+00  -3.0314126755127182e+00  -3.0755406694842251e+00  -3.1887699761535284e+00  3.1187855887918934e+00  3.0744035253875532e+00  3.0302849767158198e+00  2.9865971886144966e+00  2.9434976239327426e+00  2.9011308494355936e+00  2.8596260999290934e+00  2.8190955924624284e+00  2.7796336001916444e+00  2.7413162399322100e+00  2.7042018849162908e+00  2.6683320872473737e+00  2.6337328827846069e+00  2.6004163524873416e+00  2.5683823252946896e+00  2.5376201247994694e+00  2.5081102820107781e+00  2.4798261567643580e+00  2.4527354290104637e+00  2.4268014372148157e+00  2.4019843539982539e+00  2.3782421989121962e+00  2.3555316951815350e+00  2.3338089817746677e+00  2.3130301947613172e+00  2.2936324243852648e+00  -2.2711359946721497e+00  -2.2909215008809323e+00  -2.3116414971008359e+00  -2.3333446877199964e+00  -2.3560807960742074e+00  -2.3799001104656572e+00  -2.4048528984954776e+00  -2.4309886688337898e+00  -2.4583552597202596e+00  -2.4869977352802564e+00  -2.5169570748103451e+00  -2.5482686472678120e+00  -2.5809604740397813e+00  -2.6150512983050747e+00  -2.6505484992759771e+00  -2.6874459141117097e+00  -2.7257216582888932e+00  -2.7653360645409477e+00  -2.8062298876913965e+00  -2.8483229431182577e+00  -2.8915133546761651e+00  -2.9356775781657451e+00  -2.9806713346622105e+00  -3.0263315327645204e+00  -3.0724791827678382e+00  -3.1877338982302885e+00  3.1177202736800087e+00  3.0712817860977513e+00  3.0251450773303841e+00  2.9795009244027959e+00  2.9345279035297978e+00  2.8903885957099931e+00  2.8472267016602411e+00  2.8051651497194978e+00  2.7643051911351990e+00  2.7247264016512056e+00  2.6864874537849905e+00  2.6496274931348949e+00  2.6141679429527325e+00  2.5801145697748025e+00  2.5474596636025328e+00  2.5161842134570582e+00  2.4862599884485537e+00  2.4576514623975951e+00  2.4303175444065808e+00  2.4042130975944240e+00  2.3792902432936049e+00  2.3554994587177776e+00  2.3327904830828183e+00  2.3111130511526046e+00  2.2904174749161226e+00  2.2711322067024944e+00  -2.2477494213377867e+00  -2.2673724967391244e+00  -2.2879614974041078e+00  -2.3095707429544783e+00  -2.3322562493458565e+00  -2.3560753097019647e+00  -2.3810859288640591e+00  -2.4073460839402485e+00  -2.4349127817634013e+00  -2.4638408844405895e+00  -2.4941816769729828e+00  -2.5259811573022373e+00  -2.5592780402859088e+00  -2.5941014842044479e+00  -2.6304685724013663e+00  -2.6683816139114462e+00  -2.7078253647420669e+00  -2.7487643135762228e+00  -2.7911402177875413e+00  -2.8348701113403534e+00  -2.8798450271017226e+00  -2.9259296732958249e+00  -2.9729632694535741e+00  -3.0207616771316514e+00  -3.0691208569848278e+00  -3.1865896004458336e+00  3.1165503098726952e+00  3.0678560897913321e+00  3.0195096751748141e+00  2.9717299460304090e+00  2.9247204155542024e+00  2.8786645773924460e+00  2.8337224882272771e+00  2.7900286774083130e+00  2.7476913484075851e+00  2.7067927341265983e+00  2.6673903991325414e+00  2.6295192486082888e+00  2.5931940018869475e+00  2.5584119099974312e+00  2.5251555326462869e+00  2.4933954322579464e+00  2.4630926847015151e+00  2.4342011439434303e+00  2.4066694288774291e+00  2.3804426243423853e+00  2.3554637052259393e+00  2.3316747035254379e+00  2.3090176444841601e+00  2.2874352806248544e+00  2.2668716527174424e+00  2.2477450475643450e+00  -2.2234496158920369e+00  -2.2428579063675365e+00  -2.2632615478306870e+00  -2.2847207699571301e+00  -2.3072982966362505e+00  -2.3310589870600609e+00  -2.3560693183589030e+00  -2.3823966742818579e+00  -2.4101084008282676e+00  -2.4392705876204963e+00  -2.4699465342633338e+00  -2.5021948653996473e+00  -2.5360672684028343e+00  -2.5716058456063404e+00  -2.6088401005635209e+00  -2.6477836164431188e+00  -2.6884305344790200e+00  -2.7307519995126439e+00  -2.7746928032046219e+00  -2.8201685149121447e+00  -2.8670634333881870e+00  -2.9152297048628664e+00  -2.9644879206468482e+00  -3.0146294206830517e+00  -3.0654203882614142e+00  -3.1853174379132447e+00  3.1152595075717726e+00  3.0640798869583401e+00  3.0133039268303969e+00  2.9631843308313792e+00  2.9139542395074365e+00  2.8658214910085498e+00  2.8189645809493453e+00  2.7735304132566405e+00  2.7296337516447973e+00  2.6873581417210777e+00  2.6467579887780572e+00  2.6078614455153022e+00  2.5706737775519763e+00  2.5351809184945662e+00  2.5013529860457777e+00  2.4691475941410572e+00  2.4385128549629669e+00  2.4093900141352442e+00  2.3817157006280127e+00  2.3554238001499752e+00  2.3304469784760706e+00  2.3067178911722794e+00  2.2841701204909710e+00  2.2627388805676620e+00  2.2423615298783797e+00  2.2234445851642559e+00  -2.1982124399926453e+00  -2.2173484244661257e+00  -2.2375064447099291e+00  -2.2587528680830657e+00  -2.2811574805922543e+00  -2.3047932194799694e+00  -2.3297357395535285e+00  -2.3560627693179912e+00  -2.3838532063914868e+00  -2.4131858960846202e+00  -2.4441380337005976e+00  -2.4767831318895657e+00  -2.5111885017032827e+00  -2.5474122128383834e+00  -2.5854995282461890e+00  -2.6254788539302125e+00  -2.6673573083070892e+00  -2.7111160964097110e+00  -2.7567059676949723e+00  -2.8040431317070094e+00  -2.8530060861638211e+00  -2.9034338544133460e+00  -2.9551261090224363e+00  -3.0078455557536770e+00  -3.0613227609985629e+00  -3.1838923507056229e+00  3.1138281809789325e+00  3.0598966594819399e+00  3.0064372411870153e+00  2.9537436806301156e+00  2.9020845334905099e+00  2.8516960366741535e+00  2.8027773567373919e+00  2.7554882797588034e+00  2.7099491523038495e+00  2.6662426945720270e+00  2.6244172070832050e+00  2.5844906744357030e+00  2.5464553136817547e+00  2.5102821960367909e+00  2.4759256663178446e+00  2.4433273777179298e+00  2.4124198399000583e+00  2.3831294413388879e+00  2.3553789519016259e+00  2.3290895408628844e+00  2.3041823620189770e+00  2.2805797646198509e+00  2.2582061894484822e+00  2.2369888059602809e+00  2.2168579407579263e+00  2.1982066774631055e+00  -2.1720166363697921e+00  -2.1908175026868690e+00  -2.2106635181484258e+00  -2.2316273215330567e+00  -2.2537860227780531e+00  -2.2772210642128070e+00  -2.3020179145328972e+00  -2.3282655430498225e+00  -2.3560556113504223e+00  -2.3854813091549762e+00  -2.4166357522396900e+00  -2.4496098549409004e+00  -2.4844895911250577e+00  -2.5213525698332244e+00  -2.5602638803404183e+00  -2.6012712118623869e+00  -2.6443993307173685e+00  -2.6896441049215905e+00  -2.7369664000396479e+00  -2.7862863189735978e+00  -2.8374783992071699e+00  -2.8903684791149971e+00  -2.9447329582462194e+00  -3.0003010659030309e+00  -3.0567604970961959e+00  -3.1822819127618547e+00  3.1122321616989823e+00  3.0552371197929773e+00  2.9987989504916426e+00  2.9432616844975366e+00  2.8889364747700812e+00  2.8360927190921710e+00  2.7849525305870175e+00  2.7356885700065048e+00  2.6884248703989910e+00  2.6432400339359314e+00  2.6001720744355810e+00  2.5592241958427264e+00  2.5203708971337861e+00  2.4835639358023296e+00  2.4487378308259573e+00  2.4158147191474129e+00  2.3847084859095680e+00  2.3553281652849813e+00  2.3275806583921730e+00  2.3013728426728290e+00  2.2766131589737162e+00  2.2532127636560939e+00  2.2310863275485726e+00  2.2101525545688352e+00  2.1903344824866329e+00  2.1720100646335307e+00  -2.1448445669366816e+00  -2.1632421795748162e+00  -2.1827035565071338e+00  -2.2033076171658235e+00  -2.2251389278132820e+00  -2.2482877340322061e+00  -2.2728498346802932e+00  -2.2989262371084895e+00  -2.3266225184666522e+00  -2.3560478014961381e+00  -2.3873132365689615e+00  -2.4205298671433702e+00  -2.4558057469758952e+00  -2.4932421799176860e+00  -2.5329289745690238e+00  -2.5749386559709557e+00  -2.6193196651269286e+00  -2.6660887129466331e+00  -2.7152226405598650e+00  -2.7666503631114185e+00  -2.8202457108377463e+00  -2.8758221787692748e+00  -2.9331306849081757e+00  -2.9918613416605444e+00  -3.0516499142675992e+00  -3.1804435682904075e+00  3.1104414622750354e+00  3.0500154168869953e+00  2.9902524874859537e+00  2.9315588875776482e+00  2.8742973238510929e+00  2.8187758845766475e+00  2.7652417320169795e+00  2.7138794694393336e+00  2.6648134944806046e+00  2.6181133269785368e+00  2.5738008110856216e+00  2.5318581848500341e+00  2.4922362105587159e+00  2.4548617964013397e+00  2.4196447643919465e+00  2.3864836033640460e+00  2.3552701800122864e+00  2.3258934680885086e+00  2.2982424046009675e+00  2.2722080024910252e+00  2.2476848512323042e+00  2.2245721276854589e+00  2.2027742248348945e+00  2.1822010893816213e+00  2.1627683427897559e+00  2.1448371075611963e+00  -2.1166830215681358e+00  -2.1346040058965334e+00  -2.1536018567560737e+00  -2.1737616251568346e+00  -2.1951752942806602e+00  -2.2179420301086670e+00  -2.2421682952230926e+00  -2.2679677599065440e+00  -2.2954609246050759e+00  -2.3247743441407867e+00  -2.3560393175064314e+00  -2.3893898796054631e+00  -2.4249599067674494e+00  -2.4628791328630344e+00  -2.5032678775475006e+00  -2.5462303268462287e+00  -2.5918462967762599e+00  -2.6401615717460278e+00  -2.6911771549519266e+00  -2.7448380969386106e+00  -2.8010229520324290e+00  -2.8595352815116120e+00  -2.9200988651392108e+00  -2.9823582612793516e+00  -3.0458859511914218e+00  -3.1783206943118500e+00  3.1084184375190116e+00  3.0441239156235569e+00  2.9806274383884719e+00  2.9184129523537781e+00  2.8579059274960108e+00  2.7994594258741867e+00  2.7433471728553012e+00  2.6897631876023116e+00  2.6388267170871624e+00  2.5905908256547683e+00  2.5450529812066627e+00  2.5021662285165664e+00  2.4618499120894182e+00  2.4239992942203927e+00  2.3884937407769469e+00  2.3552033899618405e+00  2.3239943777266356e+00  2.2947327818489538e+00  2.2672874838469981e+00  2.2415321516481437e+00  2.2173465304015516e+00  2.1946172040775216e+00  2.1732379630059815e+00  2.1531098860383007e+00  2.1341412224689607e+00  2.1166745970453009e+00  -2.0875240872259639e+00  -2.1048900566326614e+00  -2.1233393950803161e+00  -2.1429629420838512e+00  -2.1638598400603213e+00  -2.1861380520528204e+00  -2.2099147806553812e+00  -2.2353167203088651e+00  -2.2624800500016655e+00  -2.2915500417993271e+00  -2.3226801223162439e+00  -2.3560301801856980e+00  -2.3917638659097431e+00  -2.4300445878999284e+00  -2.4710298821783812e+00  -2.5148638424974807e+00  -2.5616673703175565e+00  -2.6115261749065928e+00  -2.6644767581252222e+00  -2.7204910777817726e+00  -2.7794611818847796e+00  -2.8411857612900517e+00  -2.9053611103105483e+00  -2.9715791675595771e+00  -3.0393348773766746e+00  -3.1758369665415045e+00  3.1061152107033765e+00  3.0374258861370498e+00  2.9697085222260737e+00  2.9035453643695242e+00  2.8394386925164574e+00  2.7777933943593029e+00  2.7189099140311686e+00  2.6629864737932296e+00  2.6101283010582428e+00  2.5603611818384766e+00  2.5136468602474888e+00  2.4698983544358701e+00  2.4289939166296439e+00  2.3907889610684405e+00  2.3551257385535398e+00  2.3218408358979716e+00  2.2907707453893056e+00  2.2617558191403169e+00  2.2346429306383495e+00  2.2092871384596506e+00  2.1855526041338083e+00  2.1633129694242799e+00  2.1424513543864285e+00  2.1228600994900315e+00  2.1044403437365355e+00  2.0875146233576602e+00  -2.0573660611258973e+00  -2.0740940136528296e+00  -2.0919041035121193e+00  -2.1108923861459257e+00  -2.1311646388949748e+00  -2.1528371934642574e+00  -2.1760377268861442e+00  -2.2009059469064449e+00  -2.2275940783365460e+00  -2.2562670176986921e+00  -2.2871019726226698e+00  -2.3202873389107035e+00  -2.3560204929581507e+00  -2.3945040953043510e+00  -2.4359404245589160e+00  -2.4805232129889823e+00  -2.5284264743040321e+00  -2.5797899572267462e+00  -2.6347011960867479e+00  -2.6931747300722275e+00  -2.7551299541382996e+00  -2.8203701761784123e+00  -2.8885665531274549e+00  -2.9592512424139810e+00  -3.0318238100203776e+00  -3.1728882783776280e+00  3.1034699991755330e+00  3.0297450642187433e+00  2.9572200358597032e+00  2.8866030193040935e+00  2.8184906514124273e+00  2.7533465104158164e+00  2.6914951563457876e+00  2.6331293399959819e+00  2.5783263037252717e+00  2.5270688364054745e+00  2.4792674319128927e+00  2.4347810088102033e+00  2.3934347601122044e+00  2.3550345870085430e+00  2.3193781624969083e+00  2.2862630009133431e+00  2.2554920466582833e+00  2.2268773109644728e+00  2.2002420355757324e+00  2.1754217848431052e+00  2.1522647857230832e+00  2.1306317602053477e+00  2.1103954315826412e+00  2.0914398355569257e+00  2.0736595283680956e+00  2.0573554898278839e+00  -2.0262143847878558e+00  -2.0422172944334056e+00  -2.0592922276312211e+00  -2.0775396212303683e+00  -2.0970710497488207e+00  -2.1180104142087028e+00  -2.1404951679718658e+00  -2.1646775270794136e+00  -2.1907255809731403e+00  -2.2188241745648876e+00  -2.2491753703917197e+00  -2.2819982158974255e+00  -2.3175274325908628e+00  -2.3560105112070944e+00  -2.3977025479162126e+00  -2.4428580134098232e+00  -2.4917185556768500e+00  -2.5444959794365021e+00  -2.6013498421781289e+00  -2.6623598099124268e+00  -2.7274941585481391e+00  -2.7965776017740773e+00  -2.8692637120490794e+00  -2.9450189093764521e+00  -3.0231252892755656e+00  -3.1693311510858373e+00  3.1004017484231738e+00  3.0208504090227479e+00  2.9428034651160218e+00  2.8671323221422393e+00  2.7945496471276488e+00  2.7255832574887053e+00  2.6605739428886697e+00  2.5996919670787495e+00  2.5429649359073507e+00  2.4903100699763514e+00  2.4415656614105652e+00  2.3965185894890730e+00  2.3549265582642871e+00  2.3165349482276327e+00  2.2810888627677581e+00  2.2483412355991166e+00  2.2180578998277682e+00  2.1900204240580914e+00  2.1640273759359023e+00  2.1398945241470719e+00  2.1174543577437364e+00  2.0965551941600640e+00  2.0770600643989101e+00  2.0588455023688925e+00  2.0418003210305340e+00  2.0262026472612518e+00  -1.9940825683863679e+00  -2.0092701924021252e+00  -2.0255097277106073e+00  -2.0429048704490236e+00  -2.0615718005592036e+00  -2.0816407566498802e+00  -2.1032577476878975e+00  -2.1265863703101884e+00  -2.1518096701175886e+00  -2.1791319387825698e+00  -2.2087802695204877e+00  -2.2410055930843584e+00  -2.2760827754898156e+00  -2.3143091685807176e+00  -2.3560007622608596e+00  -2.4014848044753143e+00  -2.4510874743969100e+00  -2.5051150131082496e+00  -2.5638268143492691e+00  -2.6273996336552843e+00  -2.6958836285421275e+00  -2.7691536539624679e+00  -2.8468629772831640e+00  -2.9284104234713073e+00  -3.0129339900756826e+00  -3.1649661634337076e+00  3.0968020835399974e+00  3.0104332760108092e+00  2.9259845473898243e+00  2.8445421483685469e+00  2.7669608153115699e+00  2.6938339122067450e+00  2.6255007548644484e+00  2.5620801232528971e+00  2.5035168795554821e+00  2.4496307265638086e+00  2.4001600306458091e+00  2.3547973770041812e+00  2.3132162168373438e+00  2.2750894937146757e+00  2.2401017687752320e+00  2.2079564462818304e+00  2.1783795105623591e+00  2.1511209006481624e+00  2.1259543653204984e+00  2.1026763997926179e+00  2.0811046765963495e+00  2.0610762437967165e+00  2.0424456645881950e+00  2.0250832040926512e+00  2.0088731234342263e+00  1.9940696185640230e+00  -1.9609930673080684e+00  -1.9752729841431993e+00  -1.9905736716443854e+00  -2.0070006610427091e+00  -2.0246731635044921e+00  -2.0437260418368042e+00  -2.0643120376010708e+00  -2.0866042545670247e+00  -2.1107988751289946e+00  -2.1371180447689992e+00  -2.1658127917016787e+00  -2.1971657414458470e+00  -2.2314932216820487e+00  -2.2691461096514134e+00  -2.3105084297701772e+00  -2.3559922485278681e+00  -2.4060268516582508e+00  -2.4610396085867459e+00  -2.5214255479679815e+00  -2.5875029142713779e+00  -2.6594535312233778e+00  -2.7372504770205639e+00  -2.8205818353865908e+00  -2.9087872590857526e+00  -3.0008305249788454e+00  -3.1595144187787887e+00  3.0925228417298141e+00  2.9980722084665157e+00  2.9061236116245479e+00  2.8180499558679890e+00  2.7348773648802953e+00  2.6572556078176519e+00  2.585486889