<?xml version="1.0"?>
<VTKFile type="UnstructuredGrid"  version="0.1"  >
<UnstructuredGrid>
<Piece  NumberOfPoints="5305" NumberOfCells="10404">
<Points>
<DataArray  type="Float64"  NumberOfComponents="3"  format="ascii">0 0 0  0.196078431372549 0 0  0.392156862745098 0 0  0.5882352941176471 0 0  0.7843137254901961 0 0  0.9803921568627451 0 0  1.176470588235294 0 0  1.372549019607843 0 0  1.568627450980392 0 0  1.764705882352941 0 0  1.96078431372549 0 0  2.156862745098039 0 0  2.352941176470588 0 0  2.549019607843137 0 0  2.745098039215686 0 0  2.941176470588236 0 0  3.137254901960784 0 0  3.333333333333333 0 0  3.529411764705882 0 0  3.725490196078431 0 0  3.92156862745098 0 0  4.117647058823529 0 0  4.313725490196078 0 0  4.509803921568627 0 0  4.705882352941177 0 0  4.901960784313726 0 0  5.098039215686274 0 0  5.294117647058823 0 0  5.490196078431373 0 0  5.686274509803922 0 0  5.882352941176471 0 0  6.078431372549019 0 0  6.274509803921569 0 0  6.470588235294118 0 0  6.666666666666667 0 0  6.862745098039215 0 0  7.058823529411764 0 0  7.254901960784314 0 0  7.450980392156863 0 0  7.647058823529412 0 0  7.84313725490196 0 0  8.03921568627451 0 0  8.235294117647058 0 0  8.431372549019608 0 0  8.627450980392156 0 0  8.823529411764707 0 0  9.019607843137255 0 0  9.215686274509803 0 0  9.411764705882353 0 0  9.607843137254902 0 0  9.803921568627452 0 0  10 0 0  0 0.196078431372549 0  0.196078431372549 0.196078431372549 0  0.392156862745098 0.196078431372549 0  0.5882352941176471 0.196078431372549 0  0.7843137254901961 0.196078431372549 0  0.9803921568627451 0.196078431372549 0  1.176470588235294 0.196078431372549 0  1.372549019607843 0.196078431372549 0  1.568627450980392 0.196078431372549 0  1.764705882352941 0.196078431372549 0  1.96078431372549 0.196078431372549 0  2.156862745098039 0.196078431372549 0  2.352941176470588 0.196078431372549 0  2.549019607843137 0.196078431372549 0  2.745098039215686 0.196078431372549 0  2.941176470588236 0.196078431372549 0  3.137254901960784 0.196078431372549 0  3.333333333333333 0.196078431372549 0  3.529411764705882 0.196078431372549 0  3.725490196078431 0.196078431372549 0  3.92156862745098 0.196078431372549 0  4.117647058823529 0.196078431372549 0  4.313725490196078 0.196078431372549 0  4.509803921568627 0.196078431372549 0  4.705882352941177 0.196078431372549 0  4.901960784313726 0.196078431372549 0  5.098039215686274 0.196078431372549 0  5.294117647058823 0.196078431372549 0  5.490196078431373 0.196078431372549 0  5.686274509803922 0.196078431372549 0  5.882352941176471 0.196078431372549 0  6.078431372549019 0.196078431372549 0  6.274509803921569 0.196078431372549 0  6.470588235294118 0.196078431372549 0  6.666666666666667 0.196078431372549 0  6.862745098039215 0.196078431372549 0  7.058823529411764 0.196078431372549 0  7.254901960784314 0.196078431372549 0  7.450980392156863 0.196078431372549 0  7.647058823529412 0.196078431372549 0  7.84313725490196 0.196078431372549 0  8.03921568627451 0.196078431372549 0  8.235294117647058 0.196078431372549 0  8.431372549019608 0.196078431372549 0  8.627450980392156 0.196078431372549 0  8.823529411764707 0.196078431372549 0  9.019607843137255 0.196078431372549 0  9.215686274509803 0.196078431372549 0  9.411764705882353 0.196078431372549 0  9.607843137254902 0.196078431372549 0  9.803921568627452 0.196078431372549 0  10 0.196078431372549 0  0 0.392156862745098 0  0.196078431372549 0.392156862745098 0  0.392156862745098 0.392156862745098 0  0.5882352941176471 0.392156862745098 0  0.7843137254901961 0.392156862745098 0  0.9803921568627451 0.392156862745098 0  1.176470588235294 0.392156862745098 0  1.372549019607843 0.392156862745098 0  1.568627450980392 0.392156862745098 0  1.764705882352941 0.392156862745098 0  1.96078431372549 0.392156862745098 0  2.156862745098039 0.392156862745098 0  2.352941176470588 0.392156862745098 0  2.549019607843137 0.392156862745098 0  2.745098039215686 0.392156862745098 0  2.941176470588236 0.392156862745098 0  3.137254901960784 0.392156862745098 0  3.333333333333333 0.392156862745098 0  3.529411764705882 0.392156862745098 0  3.725490196078431 0.392156862745098 0  3.92156862745098 0.392156862745098 0  4.117647058823529 0.392156862745098 0  4.313725490196078 0.392156862745098 0  4.509803921568627 0.392156862745098 0  4.705882352941177 0.392156862745098 0  4.901960784313726 0.392156862745098 0  5.098039215686274 0.392156862745098 0  5.294117647058823 0.392156862745098 0  5.490196078431373 0.392156862745098 0  5.686274509803922 0.392156862745098 0  5.882352941176471 0.392156862745098 0  6.078431372549019 0.392156862745098 0  6.274509803921569 0.392156862745098 0  6.470588235294118 0.392156862745098 0  6.666666666666667 0.392156862745098 0  6.862745098039215 0.392156862745098 0  7.058823529411764 0.392156862745098 0  7.254901960784314 0.392156862745098 0  7.450980392156863 0.392156862745098 0  7.647058823529412 0.392156862745098 0  7.84313725490196 0.392156862745098 0  8.03921568627451 0.392156862745098 0  8.235294117647058 0.392156862745098 0  8.431372549019608 0.392156862745098 0  8.627450980392156 0.392156862745098 0  8.823529411764707 0.392156862745098 0  9.019607843137255 0.392156862745098 0  9.215686274509803 0.392156862745098 0  9.411764705882353 0.392156862745098 0  9.607843137254902 0.392156862745098 0  9.803921568627452 0.392156862745098 0  10 0.392156862745098 0  0 0.5882352941176471 0  0.196078431372549 0.5882352941176471 0  0.392156862745098 0.5882352941176471 0  0.5882352941176471 0.5882352941176471 0  0.7843137254901961 0.5882352941176471 0  0.9803921568627451 0.5882352941176471 0  1.176470588235294 0.5882352941176471 0  1.372549019607843 0.5882352941176471 0  1.568627450980392 0.5882352941176471 0  1.764705882352941 0.5882352941176471 0  1.96078431372549 0.5882352941176471 0  2.156862745098039 0.5882352941176471 0  2.352941176470588 0.5882352941176471 0  2.549019607843137 0.5882352941176471 0  2.745098039215686 0.5882352941176471 0  2.941176470588236 0.5882352941176471 0  3.137254901960784 0.5882352941176471 0  3.333333333333333 0.5882352941176471 0  3.529411764705882 0.5882352941176471 0  3.725490196078431 0.5882352941176471 0  3.92156862745098 0.5882352941176471 0  4.117647058823529 0.5882352941176471 0  4.313725490196078 0.5882352941176471 0  4.509803921568627 0.5882352941176471 0  4.705882352941177 0.5882352941176471 0  4.901960784313726 0.5882352941176471 0  5.098039215686274 0.5882352941176471 0  5.294117647058823 0.5882352941176471 0  5.490196078431373 0.5882352941176471 0  5.686274509803922 0.5882352941176471 0  5.882352941176471 0.5882352941176471 0  6.078431372549019 0.5882352941176471 0  6.274509803921569 0.5882352941176471 0  6.470588235294118 0.5882352941176471 0  6.666666666666667 0.5882352941176471 0  6.862745098039215 0.5882352941176471 0  7.058823529411764 0.5882352941176471 0  7.254901960784314 0.5882352941176471 0  7.450980392156863 0.5882352941176471 0  7.647058823529412 0.5882352941176471 0  7.84313725490196 0.5882352941176471 0  8.03921568627451 0.5882352941176471 0  8.235294117647058 0.5882352941176471 0  8.431372549019608 0.5882352941176471 0  8.627450980392156 0.5882352941176471 0  8.823529411764707 0.5882352941176471 0  9.019607843137255 0.5882352941176471 0  9.215686274509803 0.5882352941176471 0  9.411764705882353 0.5882352941176471 0  9.607843137254902 0.5882352941176471 0  9.803921568627452 0.5882352941176471 0  10 0.5882352941176471 0  0 0.7843137254901961 0  0.196078431372549 0.7843137254901961 0  0.392156862745098 0.7843137254901961 0  0.5882352941176471 0.7843137254901961 0  0.7843137254901961 0.7843137254901961 0  0.9803921568627451 0.7843137254901961 0  1.176470588235294 0.7843137254901961 0  1.372549019607843 0.7843137254901961 0  1.568627450980392 0.7843137254901961 0  1.764705882352941 0.7843137254901961 0  1.96078431372549 0.7843137254901961 0  2.156862745098039 0.7843137254901961 0  2.352941176470588 0.7843137254901961 0  2.549019607843137 0.7843137254901961 0  2.745098039215686 0.7843137254901961 0  2.941176470588236 0.7843137254901961 0  3.137254901960784 0.7843137254901961 0  3.333333333333333 0.7843137254901961 0  3.529411764705882 0.7843137254901961 0  3.725490196078431 0.7843137254901961 0  3.92156862745098 0.7843137254901961 0  4.117647058823529 0.7843137254901961 0  4.313725490196078 0.7843137254901961 0  4.509803921568627 0.7843137254901961 0  4.705882352941177 0.7843137254901961 0  4.901960784313726 0.7843137254901961 0  5.098039215686274 0.7843137254901961 0  5.294117647058823 0.7843137254901961 0  5.490196078431373 0.7843137254901961 0  5.686274509803922 0.7843137254901961 0  5.882352941176471 0.7843137254901961 0  6.078431372549019 0.7843137254901961 0  6.274509803921569 0.7843137254901961 0  6.470588235294118 0.7843137254901961 0  6.666666666666667 0.7843137254901961 0  6.862745098039215 0.7843137254901961 0  7.058823529411764 0.7843137254901961 0  7.254901960784314 0.7843137254901961 0  7.450980392156863 0.7843137254901961 0  7.647058823529412 0.7843137254901961 0  7.84313725490196 0.7843137254901961 0  8.03921568627451 0.7843137254901961 0  8.235294117647058 0.7843137254901961 0  8.431372549019608 0.7843137254901961 0  8.627450980392156 0.7843137254901961 0  8.823529411764707 0.7843137254901961 0  9.019607843137255 0.7843137254901961 0  9.215686274509803 0.7843137254901961 0  9.411764705882353 0.7843137254901961 0  9.607843137254902 0.7843137254901961 0  9.803921568627452 0.7843137254901961 0  10 0.7843137254901961 0  0 0.9803921568627451 0  0.196078431372549 0.9803921568627451 0  0.392156862745098 0.9803921568627451 0  0.5882352941176471 0.9803921568627451 0  0.7843137254901961 0.9803921568627451 0  0.9803921568627451 0.9803921568627451 0  1.176470588235294 0.9803921568627451 0  1.372549019607843 0.9803921568627451 0  1.568627450980392 0.9803921568627451 0  1.764705882352941 0.9803921568627451 0  1.96078431372549 0.9803921568627451 0  2.156862745098039 0.9803921568627451 0  2.352941176470588 0.9803921568627451 0  2.549019607843137 0.9
[...]
<PointData  Scalars="f_10"> 
<DataArray  type="Float64"  Name="f_10"  format="ascii">-3.8682848666918616e-04  -3.7300844197401910e-04  -3.5459463596034126e-04  -3.3061669896504382e-04  -2.9998399411174792e-04  -2.6149252816812495e-04  -2.1384026882584396e-04  -1.5565291918883867e-04  -8.5522133372360965e-05  -2.0578528270163743e-06  9.6044173305861975e-05  2.0991961425475902e-04  3.4043887082808129e-04  4.8809963424224084e-04  6.5291399295888479e-04  8.3429768531325743e-04  1.0309712631893621e-03  1.2408845953711331e-03  1.4611768609746698e-03  1.6881835324991884e-03  1.9174994966587552e-03  2.1441032955709194e-03  2.3625416901050787e-03  2.5671669147700623e-03  2.7524120102022541e-03  2.9566925983621184e-03  3.0446475414572980e-03  3.1434819071120448e-03  3.2070741235031438e-03  3.2341446386538889e-03  3.2246873602724837e-03  3.1799261031410430e-03  3.1021949757536580e-03  2.9947577540568454e-03  2.8615859347383889e-03  2.7071169518621493e-03  2.5360131196949707e-03  2.3529387833861990e-03  2.1623687045144425e-03  1.9684357144858760e-03  1.7748208635544973e-03  1.5846852050639228e-03  1.4006392801191325e-03  1.2247443914354618e-03  1.0585387978769675e-03  9.0308184255891036e-04  7.5900952190493891e-04  6.2659588501816029e-04  5.0581572519367731e-04  3.9640513468900833e-04  2.9791753285137872e-04  9.8830166943955590e-04  -3.8670968930807834e-04  -3.7047483479496712e-04  -3.4870654830960351e-04  -3.2019145610655964e-04  -2.8355326445177133e-04  -2.3725779405220644e-04  -1.7962850263480323e-04  -1.0887542669720353e-04  -2.3140519418545307e-05  7.9437895944651929e-05  2.0063951751094839e-04  3.4205447844170715e-04  5.0495480301748557e-04  6.9014842215516566e-04  8.9782234429622233e-04  1.1273850262303584e-03  1.3773214249220415e-03  1.6450770816678045e-03  1.9269892081101490e-03  2.2182823885574330e-03  2.5131435806786408e-03  2.8048852896444638e-03  3.0861973022950056e-03  3.3494769981236732e-03  3.5872173961135801e-03  3.8360376258243676e-03  3.9590135576076406e-03  4.0821866773115599e-03  4.1586888469056582e-03  4.1869844263776853e-03  4.1672995190127106e-03  4.1015441665561807e-03  3.9931260340035210e-03  3.8466797307915258e-03  3.6677423213505459e-03  3.4624073958393685e-03  3.2369877056231877e-03  2.9977108584704672e-03  2.7504652678296770e-03  2.5006058030743903e-03  2.2528214903431978e-03  2.0110618912974722e-03  1.7785147750849298e-03  1.5576254035969098e-03  1.3501469498022770e-03  1.1572119192721469e-03  9.7941556915240140e-04  8.1690387036832386e-04  6.6946025702382765e-04  5.3658704919165882e-04  4.1757889377373698e-04  1.0903594517737176e-03  -3.8657641045804274e-04  -3.6755938214094161e-04  -3.4189511468202423e-04  -3.0807050749784054e-04  -2.6435313226673635e-04  -2.0879249564720423e-04  -1.3923418625113332e-04  -5.3351032200182880e-05  5.1304349220474236e-05  1.7722134735391766e-04  3.2682391192167919e-04  5.0233170134617077e-04  7.0559000845305908e-04  9.3787201868735925e-04  1.1996613254255872e-03  1.4904277595667534e-03  1.8084149839545601e-03  2.1504631569177111e-03  2.5118932204890665e-03  2.8864798220105850e-03  3.2665364399768423e-03  3.6431282865622252e-03  4.0064160933607198e-03  4.3461180591179687e-03  4.6520602037880207e-03  4.9583852948075786e-03  5.1260582637267767e-03  5.2795293709384543e-03  5.3709693850242466e-03  5.3985707432454228e-03  5.3629757077517182e-03  5.2671409458273331e-03  5.1160466698495126e-03  4.9162893257813254e-03  4.6756054986735081e-03  4.4023759635372856e-03  4.1051536177104638e-03  3.7922493270566766e-03  3.4713978185745929e-03  3.1495138059334116e-03  2.8325381634108854e-03  2.5253661127981834e-03  2.2318443602866913e-03  1.9548217259254637e-03  1.6962375539075775e-03  1.4572334600476790e-03  1.2382761560487555e-03  1.0392816745017071e-03  8.5973391974367706e-04  6.9879283571499401e-04  5.5538947526216902e-04  1.2073637031990059e-03  -3.8642708599686328e-04  -3.6421951218956880e-04  -3.3405039064350974e-04  -2.9403857096791302e-04  -2.4200945768452657e-04  -1.7548964170311282e-04  -9.1717055158829208e-05  1.2327630728210951e-05  1.3986203224839922e-04  2.9420899656929758e-04  4.7866348663536308e-04  6.9631498265319142e-04  9.4982385485550976e-04  1.2411546161655135e-03  1.5712750711734914e-03  1.9398379308551799e-03  2.3448698384028982e-03  2.7825008259826809e-03  3.2467733731406444e-03  3.7295725033228123e-03  4.2207147867303358e-03  4.7082233141660960e-03  5.1787974346358843e-03  5.6184617646533805e-03  6.0133520022253098e-03  6.3941769674450933e-03  6.6190250913641460e-03  6.8101666881433629e-03  6.9185353264675205e-03  6.9420651301762568e-03  6.8821157208910615e-03  6.7432401754823883e-03  6.5327294546126610e-03  6.2599966940992029e-03  5.9358761580600699e-03  5.5719109999002323e-03  5.1796934026897183e-03  4.7703037655647366e-03  4.3538763143456784e-03  3.9393002415777324e-03  3.5340505502253206e-03  3.1441323124120684e-03  2.7741161542556630e-03  2.4272408243826509e-03  2.1055597175782524e-03  1.8101111491744561e-03  1.5410960668762017e-03  1.2980510121898339e-03  1.0800080053163209e-03  8.8563633880763156e-04  7.1336390627799683e-04  1.3408639537462865e-03  -3.8626019378331001e-04  -3.6041228452943902e-04  -3.2505958883246536e-04  -2.7787125219535998e-04  -2.1612625395172515e-04  -1.3669721089144916e-04  -3.6052421152252693e-05  8.9716053488691415e-05  2.4482927768304031e-04  4.3371359619573472e-04  6.6083848188180764e-04  9.3049198632949635e-04  1.2464890467980287e-03  1.6118136068382506e-03  2.0282038778469823e-03  2.4957010284022887e-03  3.0121944449796076e-03  3.5730099464075685e-03  4.1705985318420237e-03  4.7943892211738358e-03  5.4308668776390928e-03  6.0639217759617305e-03  6.6754910318795662e-03  7.2464745818823879e-03  7.7578652762044179e-03  8.2355775403428772e-03  8.5337438602830443e-03  8.7716393074356060e-03  8.8986071193479736e-03  8.9123965691966060e-03  8.8155751098746467e-03  8.6151342676735396e-03  8.3217729957339882e-03  7.9489623456323270e-03  7.5119095045810087e-03  7.0265337479782910e-03  6.5085462027891870e-03  5.9726961157048281e-03  5.4322152559209864e-03  4.8984644375567789e-03  4.3807651044917269e-03  3.8863855833750991e-03  3.4206454774551253e-03  2.9871012873406775e-03  2.5877798914450381e-03  2.2234322655788814e-03  1.8937863621349359e-03  1.5977844136373176e-03  1.3337954776521167e-03  1.0997985246212305e-03  8.9353473851686710e-04  1.4923972085948687e-03  -3.8607433944608455e-04  -3.5609584980226833e-04  -3.1481042614387686e-04  -2.5934078949280386e-04  -1.8629420079754861e-04  -9.1729422415684736e-05  2.8855596487921540e-05  1.8050487096860860e-04  3.6874184265945357e-04  5.9944897961576973e-04  8.7867466183896403e-04  1.2123535059290751e-03  1.6059298279028295e-03  2.0638809280052526e-03  2.5891480463526495e-03  3.1824984549731154e-03  3.8418616154964219e-03  4.5617037336448058e-03  5.3325248711951654e-03  6.1405759754056656e-03  6.9678937982689919e-03  7.7927342330734927e-03  8.5904461177864194e-03  9.3347696894600964e-03  9.9994742605216368e-03  1.0603728404940376e-02  1.0996171229014192e-02  1.1291945913579260e-02  1.1438358365662133e-02  1.1433160790402264e-02  1.1280925643734880e-02  1.0992378951047901e-02  1.0583266998743507e-02  1.0072927973975961e-02  9.4827558993402575e-03  8.8347277520570266e-03  8.1501253386815162e-03  7.4485334217146400e-03  6.7471459767088357e-03  6.0603712848273138e-03  5.3996978379978952e-03  4.7737672488236266e-03  4.1885956371975836e-03  3.6478882883675345e-03  3.1534005654718137e-03  2.7053083955688099e-03  2.3025621419931605e-03  1.9432070840740435e-03  1.6246614299462324e-03  1.3439486242962633e-03  1.0978847998079598e-03  1.6634310311651405e-03  -3.8586836564240192e-04  -3.5123133264361027e-04  -3.0319557989007593e-04  -2.3822400073724855e-04  -1.5210300516502201e-04  -3.9884204136247145e-05  1.0415145933051091e-04  2.8649344370437703e-04  5.1434810300787640e-04  7.9551169106110086e-04  1.1381474494887021e-03  1.5504441614682121e-03  2.0401366727071761e-03  2.6138768543920075e-03  3.2764578189977992e-03  4.0299159197213748e-03  4.8725640262341106e-03  5.7980436501000251e-03  6.7945178416232398e-03  7.8441535345482837e-03  8.9230509903106079e-03  1.0001758767741491e-02  1.1046458075523844e-02  1.2020810800501412e-02  1.2888352065741569e-02  1.3658675230653203e-02  1.4172711682725516e-02  1.4539876099193426e-02  1.4704880759897124e-02  1.4665879883460785e-02  1.4430747879522308e-02  1.4015951912820424e-02  1.3444748516976565e-02  1.2744990236225941e-02  1.1946841159153719e-02  1.1080660308668132e-02  1.0175238258678408e-02  9.2564871106159304e-03  8.3466056073655745e-03  7.4636812359768845e-03  6.6216538681737993e-03  5.8305493215106046e-03  5.0968914552760097e-03  4.4242122688324843e-03  3.8135956546532235e-03  3.2642079291376027e-03  2.7737843982906045e-03  2.3390546349434929e-03  1.9560993940294139e-03  1.6206393048132808e-03  1.3282600972133402e-03  1.8552922210116314e-03  -3.8564148549283706e-04  -3.4578516934038908e-04  -2.9011837480845816e-04  -2.1431275406926843e-04  -1.1315831598577611e-04  1.9531754735000635e-05  1.9099370556895320e-04  4.0954573527345436e-04  6.8455758872027774e-04  1.0263289450388314e-03  1.4458436024843218e-03  1.9543638531845896e-03  2.5628308923861987e-03  3.2810451253060028e-03  4.1166176115330416e-03  5.0737130922485739e-03  6.1516471797704126e-03  7.3434536153006375e-03  8.6345958255052944e-03  1.0002048537397857e-02  1.1414002872254364e-02  1.2830432658539890e-02  1.4204684774958893e-02  1.5486118019954177e-02  1.6623628485335662e-02  1.7613082662520454e-02  1.8284474921393609e-02  1.8739229705769810e-02  1.8918792930412581e-02  1.8822503892441729e-02  1.8463656375858676e-02  1.7867586806947496e-02  1.7068784139897535e-02  1.6107502632854324e-02  1.5026356318279831e-02  1.3867285464434781e-02  1.2669149229067632e-02  1.1466054877127197e-02  1.0286412230136729e-02  9.1526178319445723e-03  8.0812289272642421e-03  7.0834763254700745e-03  6.1659773024151741e-03  5.3315345243865712e-03  4.5799362227261090e-03  3.9087008882949942e-03  3.3137335039976510e-03  2.7898786268061733e-03  2.3313685468478716e-03  1.9321730346012927e-03  1.5862618359556218e-03  2.0690805237465913e-03  -3.8539343880878942e-04  -3.3973190625545996e-04  -2.7549976822961194e-04  -1.8742720120195483e-04  -6.9103806315092377e-05  8.7169032135776928e-05  2.9050594241675790e-04  5.5152375701645836e-04  8.8235640512255751e-04  1.2965599821809146e-03  1.8088607078873271e-03  2.4346915126541749e-03  3.1894605475091932e-03  4.0875008462795221e-03  5.1406694878401585e-03  6.3566019722496219e-03  7.7366869586316606e-03  9.2739081407971855e-03  1.0950797087050112e-02  1.2737836612070603e-02  1.4592720859893785e-02  1.6460880093650213e-02  1.8277581343061056e-02  1.9971704133723522e-02  2.1470981436959049e-02  2.2751378521590218e-02  2.3627176769458070e-02  2.4188575866030650e-02  2.4372982795484985e-02  2.4182397953890124e-02  2.3639011301853079e-02  2.2781942911305957e-02  2.1662574268202950e-02  2.0339287772600880e-02  1.8872383585913498e-02  1.7319755529569100e-02  1.5733658527257315e-02  1.4158660243039412e-02  1.2630685239432346e-02  1.1176948409846326e-02  9.8165304691176479e-03  8.5613546458143119e-03  7.4173601658039118e-03  6.3857171980383530e-03  5.4639773901690820e-03  4.6470969346262062e-03  3.9283023793586554e-03  3.2997929389770343e-03  2.7532881393733041e-03  2.2804380779435697e-03  1.8731172615359308e-03  2.3055677799231214e-03  -3.8512466680545632e-04  -3.3305742761262000e-04  -2.5928661308907025e-04  -1.5743186137191106e-04  -1.9648821931788770e-05  1.6359149409788680e-04  4.0371090245200879e-04  7.1419374350069928e-04  1.1106806845029879e-03  1.6109356450792205e-03  2.2346199664717813e-03  3.0027936949498079e-03  3.9370537949976981e-03  5.0582188215917440e-03  6.3844868187278988e-03  7.9290373529296524e-03  9.6971287721630463e-03  1.1682863129658973e-02  1.3865949008737199e-02  1.6208965216108876e-02  1.8655772519064272e-02  2.1131772564483110e-02  2.3546603036699951e-02  2.5799539057003138e-02  2.7787355716256758e-02  2.9456794445062304e-02  3.0599247253352849e-02  3.1289013394292083e-02  3.1458662554113635e-02  3.1115582968709032e-02  3.0296614739924024e-02  2.9062449541741614e-02  2.7490022671920342e-02  2.5664299702938598e-02  2.3670693227769608e-02  2.1588958736773703e-02  1.9488966805448014e-02  1.7428355801465449e-02  1.5451801190288017e-02  1.3591504699895752e-02  1.1868483813240219e-02  1.0294290232170086e-02  8.8728680436009882e-03  7.6023509341349186e-03  6.4766766439759297e-03  5.4869587383093305e-03  4.6225995930301942e-03  3.8721564314811150e-03  3.2239877972206231e-03  2.6667145814581474e-03  2.1895307129138225e-03  2.5650842611763796e-03  -3.8483649723345287e-04  -3.2576253054601657e-04  -2.4146105230078168e-04  -1.2425440889436126e-04  3.5398378283631540e-05  2.4922173806806385e-04  5.3144573745709698e-04  8.9910072391118383e-04  1.3722391685688233e-03  1.9740195471120662e-03  2.7305633854098435e-03  3.6704709472201095e-03  4.8238575895816161e-03  6.2207590158935367e-03  7.8887611984595468e-03  9.8497556542577729e-03  1.2115821678785096e-02  1.4684410228586112e-02  1.7533253344491777e-02  2.0615725957674164e-02  2.3857680309363725e-02  2.7156947030737479e-02  3.0386611435130585e-02  3.3402710116915937e-02  3.6056132934616021e-02  3.8250078216774647e-02  3.9742068715191765e-02  4.0583661424273047e-02  4.0701968390356315e-02  4.0114762896461896e-02  3.8883153003883314e-02  3.7101862212721728e-02  3.4886715060502574e-02  3.2361755125547932e-02  2.9647970508608595e-02  2.6854818696957397e-02  2.4074933555605055e-02  2.1381770988094122e-02  1.8829586091689110e-02  1.6455011755756973e-02  1.4279554464925025e-02  1.2312458039802979e-02  1.0553547405531832e-02  8.9958132880752009e-03  7.6276169082127032e-03  6.4344773668451654e-03  5.4004573225741141e-03  4.5091916291179679e-03  3.7446159573594020e-03  3.0914541326121478e-03  2.5355185453513908e-03  2.8473956648580800e-03  -3.8453132740846576e-04  -3.1786670172657651e-04  -2.2205073106454823e-04  -8.7906686396518381e-05  9.6092332997451053e-05  3.4427626393885224e-04  6.7425793262587349e-04  1.1074085978577649e-03  1.6692773205888791e-03  2.3898744521927890e-03  3.3037038800814815e-03  4.4493862251647875e-03  5.8686699295185463e-03  7.6045880129903447e-03  9.6985013714184672e-03  1.2185800136072253e-02  1.5090146997356439e-02  1.8416378213228536e-02  2.2142556193742311e-02  2.6212182342966107e-02  3.0528149387448116e-02  3.4950458632635552e-02  3.9299778622255532e-02  4.3368296780170443e-02  4.6937887224514273e-02  4.9845779276879658e-02  5.1798475504367829e-02  5.2814638744357281e-02  5.2815970946905683e-02  5.1839793291024221e-02  4.9987753080973724e-02  4.7408748081371396e-02  4.4278139169072854e-02  4.0777485516234835e-02  3.7077918049271047e-02  3.3328700512801873e-02  2.9651105078287106e-02  2.6136777323208335e-02  2.2849336168372276e-02  1.9827930690018647e-02  1.7091686955149000e-02  1.4644276223470644e-02  1.2478124723028294e-02  1.0578017929940921e-02  8.9240166782634731e-03  7.4937052454032973e-03  6.2638469549539076e-03  5.2115456274415637e-03  4.3150137872880138e-03  3.5540400259259372e-03  2.9102344291783715e-03  3.1515763012818685e-03  -3.8421278782010048e-04  -3.0941187600459991e-04  -2.0113930939011780e-04  -4.8507037756483251e-05  1.6230836563422196e-04  4.4869197952602624e-04  8.3228321144827812e-04  1.3397055863958547e-03  2.0032787355981855e-03  2.8616206995105481e-03  3.9599979280284317e-03  5.3502147717098356e-03  7.0897559834240823e-03  9.2398134519699072e-03  1.1861761824143327e-02  1.5011633134280689e-02  1.8732235020237308e-02  2.3042836107111775e-02  2.7926883009621879e-02  3.3319053480658403e-02  3.9094015617359257e-02  4.5060284946616021e-02  5.0963047325268879e-02  5.6499112287681036e-02  6.1344832412218234e-02  6.5235558077200093e-02  6.7799332990690242e-02  6.9006619036863448e-02  6.8775541339558419e-02  6.7179891417108659e-02  6.4389777081355223e-02  6.0641188102916257e-02  5.6201128575592597e-02  5.1335733693542926e-02  4.6286144347327758e-02  4.1253821985908198e-02  3.6394561520763216e-02  3.1819132834645346e-02  2.7598138840902176e-02  2.3768963982389667e-02  2.0343243537397672e-02  1.7313862980995964e-02  1.4660971996997042e-02  1.2356832554092955e-02  1.0369526580040861e-02  8.6656568254271614e-03  7.2122167691812079e-03  5.9778083243707250e-03  4.9333685020831047e-03  4.0525401894812435e-03  3.3117948424986978e-03  3.4758862961970505e-03  -3.8388586446101280e-04  -3.0046587907952128e-04  -1.7887652740405772e-04  -6.3025454343409101e-06  2.3369916209716268e-04  5.6204740225655498e-04  1.0051096970236195e-03  1.5957793707642616e-03  2.3746058731766734e-03  3.3908813166254837e-03  4.7035182199078891e-03  6.3814584754146968e-03  8.5032290109916617e-03  1.1155110010771418e-02  1.4427226172433989e-02  1.8406755736538799e-02  2.3167461083705054e-02  2.8755012950458497e-02  3.5168281778830537e-02  4.2338063470377683e-02  5.0106608762736739e-02  5.8213505395900131e-02  6.6295051865481583e-02  7.3903894760990421e-02  8.0552073231627205e-02  8.5814076730231656e-02  8.9194355045941989e-02  9.0591655916501521e-02  8.9926658313110863e-02  8.7341288651040988e-02  8.3122819335841286e-02  7.7648726922532149e-02  7.1327682013237942e-02  6.4549636866512244e-02  5.7651876339537722e-02  5.0901914136992917e-02  4.4494206032722514e-02  3.8556127107849753e-02  3.3158855972765265e-02  2.8329842748877704e-02  2.4064739531687564e-02  2.0337685749017963e-02  1.7109552205769648e-02  1.4334176488153777e-02  1.1962839089578025e-02  9.9473083154058266e-03  8.2417818527486062e-03  6.8040143167965236e-03  5.5958678096582675e-03  4.5834700321349718e-03  3.7371181038796451e-03  3.8176629396885244e-03  -3.8355695460784911e-04  -2.9112518266308977e-04  -1.5548684383667006e-04  3.8310793186406087e-05  3.0965339092706840e-04  6.8348407580328438e-04  1.1916364132203534e-03  1.8743725779152239e-03  2.7820920133218197e-03  3.9771226454641175e-03  5.5354218997952275e-03  7.5478865534792782e-03  1.0120786995640726e-02  1.3374595981074204e-02  1.7440183425713310e-02  2.2451041279354950e-02  2.8529995098260846e-02  3.5768962166683176e-02  4.4201065092827778e-02  5.3766224994470604e-02  6.4274557542474395e-02  7.5376276060116904e-02  8.6551054111334555e-02  9.7131140539198177e-02  1.0636746590622199e-01  1.1357390565637121e-01  1.1805461197842948e-01  1.1959969982623667e-01  1.1814850571951580e-01  1.1397145723813966e-01  1.0755953861876758e-01  9.9522547038596615e-02  9.0488556149505531e-02  8.1026902400226405e-02  7.1603173488009791e-02  6.2563474889715476e-02  5.4139614214489824e-02  4.6466023668149649e-02  3.9601076888032972e-02  3.3548048551204829e-02  2.8273240185233521e-02  2.3720385985411954e-02  1.9821385763415245e-02  1.6503861115136038e-02  1.3696177206484748e-02  1.1330555773623434e-02  9.3448156977232605e-03  7.6831677348601938e-03  6.2963856594518211e-03  5.1415878488677595e-03  4.1817936258963274e-03  4.1732383351511734e-03  -3.8323382960012137e-04  -2.8151654516519071e-04  -1.3127546894377184e-04  8.4772435291670487e-05  3.8926098425778535e-04  8.1163610466447763e-04  1.3899387536319184e-03  2.1729374329980079e-03  3.2226101719421353e-03  4.6169213332250278e-03  6.4527424211798671e-03  8.8486070665366821e-03  1.1946741661879607e-02  1.5913445790165525e-02  2.0936391049496444e-02  2.7216779413673644e-02  3.4953656664403414e-02  4.4317288578440160e-02  5.5408931997761299e-02  6.8206463868940567e-02  8.2500238864042064e-02  9.7831782145042012e-02  1.1345806902446966e-01  1.2837109337936178e-01  1.4139749745731986e-01  1.5141604095406211e-01  1.5739510631125844e-01  1.5895667855254428e-01  1.5609792693881888e-01  1.4933570522663098e-01  1.3952169495133435e-01  1.2765099604676969e-01  1.1469056881031152e-01  1.0146425613234666e-01  8.8600326336806173e-02  7.6527837047218397e-02  6.5502070541217108e-02  5.5641985177778117e-02  4.6968426997831832e-02  3.9437270223161729e-02  3.2965437301655284e-02  2.7449893804687587e-02  2.2780680103225828e-02  1.8849309135735275e-02  1.5553778046023009e-02  1.2801224106350066e-02  1