<?xml version="1.0"?>
<VTKFile type="UnstructuredGrid"  version="0.1"  >
<UnstructuredGrid>
<Piece  NumberOfPoints="5101" NumberOfCells="10000">
<Points>
<DataArray  type="Float64"  NumberOfComponents="3"  format="ascii">0 0 0  0.2 0 0  0.4 0 0  0.6 0 0  0.8 0 0  1 0 0  1.2 0 0  1.4 0 0  1.6 0 0  1.8 0 0  2 0 0  2.2 0 0  2.4 0 0  2.6 0 0  2.8 0 0  3 0 0  3.2 0 0  3.4 0 0  3.6 0 0  3.8 0 0  4 0 0  4.2 0 0  4.4 0 0  4.6 0 0  4.8 0 0  5 0 0  5.2 0 0  5.4 0 0  5.6 0 0  5.8 0 0  6 0 0  6.2 0 0  6.4 0 0  6.6 0 0  6.8 0 0  7 0 0  7.2 0 0  7.4 0 0  7.6 0 0  7.8 0 0  8 0 0  8.199999999999999 0 0  8.4 0 0  8.6 0 0  8.800000000000001 0 0  9 0 0  9.199999999999999 0 0  9.4 0 0  9.6 0 0  9.800000000000001 0 0  10 0 0  0 0.2 0  0.2 0.2 0  0.4 0.2 0  0.6 0.2 0  0.8 0.2 0  1 0.2 0  1.2 0.2 0  1.4 0.2 0  1.6 0.2 0  1.8 0.2 0  2 0.2 0  2.2 0.2 0  2.4 0.2 0  2.6 0.2 0  2.8 0.2 0  3 0.2 0  3.2 0.2 0  3.4 0.2 0  3.6 0.2 0  3.8 0.2 0  4 0.2 0  4.2 0.2 0  4.4 0.2 0  4.6 0.2 0  4.8 0.2 0  5 0.2 0  5.2 0.2 0  5.4 0.2 0  5.6 0.2 0  5.8 0.2 0  6 0.2 0  6.2 0.2 0  6.4 0.2 0  6.6 0.2 0  6.8 0.2 0  7 0.2 0  7.2 0.2 0  7.4 0.2 0  7.6 0.2 0  7.8 0.2 0  8 0.2 0  8.199999999999999 0.2 0  8.4 0.2 0  8.6 0.2 0  8.800000000000001 0.2 0  9 0.2 0  9.199999999999999 0.2 0  9.4 0.2 0  9.6 0.2 0  9.800000000000001 0.2 0  10 0.2 0  0 0.4 0  0.2 0.4 0  0.4 0.4 0  0.6 0.4 0  0.8 0.4 0  1 0.4 0  1.2 0.4 0  1.4 0.4 0  1.6 0.4 0  1.8 0.4 0  2 0.4 0  2.2 0.4 0  2.4 0.4 0  2.6 0.4 0  2.8 0.4 0  3 0.4 0  3.2 0.4 0  3.4 0.4 0  3.6 0.4 0  3.8 0.4 0  4 0.4 0  4.2 0.4 0  4.4 0.4 0  4.6 0.4 0  4.8 0.4 0  5 0.4 0  5.2 0.4 0  5.4 0.4 0  5.6 0.4 0  5.8 0.4 0  6 0.4 0  6.2 0.4 0  6.4 0.4 0  6.6 0.4 0  6.8 0.4 0  7 0.4 0  7.2 0.4 0  7.4 0.4 0  7.6 0.4 0  7.8 0.4 0  8 0.4 0  8.199999999999999 0.4 0  8.4 0.4 0  8.6 0.4 0  8.800000000000001 0.4 0  9 0.4 0  9.199999999999999 0.4 0  9.4 0.4 0  9.6 0.4 0  9.800000000000001 0.4 0  10 0.4 0  0 0.6 0  0.2 0.6 0  0.4 0.6 0  0.6 0.6 0  0.8 0.6 0  1 0.6 0  1.2 0.6 0  1.4 0.6 0  1.6 0.6 0  1.8 0.6 0  2 0.6 0  2.2 0.6 0  2.4 0.6 0  2.6 0.6 0  2.8 0.6 0  3 0.6 0  3.2 0.6 0  3.4 0.6 0  3.6 0.6 0  3.8 0.6 0  4 0.6 0  4.2 0.6 0  4.4 0.6 0  4.6 0.6 0  4.8 0.6 0  5 0.6 0  5.2 0.6 0  5.4 0.6 0  5.6 0.6 0  5.8 0.6 0  6 0.6 0  6.2 0.6 0  6.4 0.6 0  6.6 0.6 0  6.8 0.6 0  7 0.6 0  7.2 0.6 0  7.4 0.6 0  7.6 0.6 0  7.8 0.6 0  8 0.6 0  8.199999999999999 0.6 0  8.4 0.6 0  8.6 0.6 0  8.800000000000001 0.6 0  9 0.6 0  9.199999999999999 0.6 0  9.4 0.6 0  9.6 0.6 0  9.800000000000001 0.6 0  10 0.6 0  0 0.8 0  0.2 0.8 0  0.4 0.8 0  0.6 0.8 0  0.8 0.8 0  1 0.8 0  1.2 0.8 0  1.4 0.8 0  1.6 0.8 0  1.8 0.8 0  2 0.8 0  2.2 0.8 0  2.4 0.8 0  2.6 0.8 0  2.8 0.8 0  3 0.8 0  3.2 0.8 0  3.4 0.8 0  3.6 0.8 0  3.8 0.8 0  4 0.8 0  4.2 0.8 0  4.4 0.8 0  4.6 0.8 0  4.8 0.8 0  5 0.8 0  5.2 0.8 0  5.4 0.8 0  5.6 0.8 0  5.8 0.8 0  6 0.8 0  6.2 0.8 0  6.4 0.8 0  6.6 0.8 0  6.8 0.8 0  7 0.8 0  7.2 0.8 0  7.4 0.8 0  7.6 0.8 0  7.8 0.8 0  8 0.8 0  8.199999999999999 0.8 0  8.4 0.8 0  8.6 0.8 0  8.800000000000001 0.8 0  9 0.8 0  9.199999999999999 0.8 0  9.4 0.8 0  9.6 0.8 0  9.800000000000001 0.8 0  10 0.8 0  0 1 0  0.2 1 0  0.4 1 0  0.6 1 0  0.8 1 0  1 1 0  1.2 1 0  1.4 1 0  1.6 1 0  1.8 1 0  2 1 0  2.2 1 0  2.4 1 0  2.6 1 0  2.8 1 0  3 1 0  3.2 1 0  3.4 1 0  3.6 1 0  3.8 1 0  4 1 0  4.2 1 0  4.4 1 0  4.6 1 0  4.8 1 0  5 1 0  5.2 1 0  5.4 1 0  5.6 1 0  5.8 1 0  6 1 0  6.2 1 0  6.4 1 0  6.6 1 0  6.8 1 0  7 1 0  7.2 1 0  7.4 1 0  7.6 1 0  7.8 1 0  8 1 0  8.199999999999999 1 0  8.4 1 0  8.6 1 0  8.800000000000001 1 0  9 1 0  9.199999999999999 1 0  9.4 1 0  9.6 1 0  9.800000000000001 1 0  10 1 0  0 1.2 0  0.2 1.2 0  0.4 1.2 0  0.6 1.2 0  0.8 1.2 0  1 1.2 0  1.2 1.2 0  1.4 1.2 0  1.6 1.2 0  1.8 1.2 0  2 1.2 0  2.2 1.2 0  2.4 1.2 0  2.6 1.2 0  2.8 1.2 0  3 1.2 0  3.2 1.2 0  3.4 1.2 0  3.6 1.2 0  3.8 1.2 0  4 1.2 0  4.2 1.2 0  4.4 1.2 0  4.6 1.2 0  4.8 1.2 0  5 1.2 0  5.2 1.2 0  5.4 1.2 0  5.6 1.2 0  5.8 1.2 0  6 1.2 0  6.2 1.2 0  6.4 1.2 0  6.6 1.2 0  6.8 1.2 0  7 1.2 0  7.2 1.2 0  7.4 1.2 0  7.6 1.2 0  7.8 1.2 0  8 1.2 0  8.199999999999999 1.2 0  8.4 1.2 0  8.6 1.2 0  8.800000000000001 1.2 0  9 1.2 0  9.199999999999999 1.2 0  9.4 1.2 0  9.6 1.2 0  9.800000000000001 1.2 0  10 1.2 0  0 1.4 0  0.2 1.4 0  0.4 1.4 0  0.6 1.4 0  0.8 1.4 0  1 1.4 0  1.2 1.4 0  1.4 1.4 0  1.6 1.4 0  1.8 1.4 0  2 1.4 0  2.2 1.4 0  2.4 1.4 0  2.6 1.4 0  2.8 1.4 0  3 1.4 0  3.2 1.4 0  3.4 1.4 0  3.6 1.4 0  3.8 1.4 0  4 1.4 0  4.2 1.4 0  4.4 1.4 0  4.6 1.4 0  4.8 1.4 0  5 1.4 0  5.2 1.4 0  5.4 1.4 0  5.6 1.4 0  5.8 1.4 0  6 1.4 0  6.2 1.4 0  6.4 1.4 0  6.6 1.4 0  6.8 1.4 0  7 1.4 0  7.2 1.4 0  7.4 1.4 0  7.6 1.4 0  7.8 1.4 0  8 1.4 0  8.199999999999999 1.4 0  8.4 1.4 0  8.6 1.4 0  8.800000000000001 1.4 0  9 1.4 0  9.199999999999999 1.4 0  9.4 1.4 0  9.6 1.4 0  9.800000000000001 1.4 0  10 1.4 0  0 1.6 0  0.2 1.6 0  0.4 1.6 0  0.6 1.6 0  0.8 1.6 0  1 1.6 0  1.2 1.6 0  1.4 1.6 0  1.6 1.6 0  1.8 1.6 0  2 1.6 0  2.2 1.6 0  2.4 1.6 0  2.6 1.6 0  2.8 1.6 0  3 1.6 0  3.2 1.6 0  3.4 1.6 0  3.6 1.6 0  3.8 1.6 0  4 1.6 0  4.2 1.6 0  4.4 1.6 0  4.6 1.6 0  4.8 1.6 0  5 1.6 0  5.2 1.6 0  5.4 1.6 0  5.6 1.6 0  5.8 1.6 0  6 1.6 0  6.2 1.6 0  6.4 1.6 0  6.6 1.6 0  6.8 1.6 0  7 1.6 0  7.2 1.6 0  7.4 1.6 0  7.6 1.6 0  7.8 1.6 0  8 1.6 0  8.199999999999999 1.6 0  8.4 1.6 0  8.6 1.6 0  8.800000000000001 1.6 0  9 1.6 0  9.199999999999999 1.6 0  9.4 1.6 0  9.6 1.6 0  9.800000000000001 1.6 0  10 1.6 0  0 1.8 0  0.2 1.8 0  0.4 1.8 0  0.6 1.8 0  0.8 1.8 0  1 1.8 0  1.2 1.8 0  1.4 1.8 0  1.6 1.8 0  1.8 1.8 0  2 1.8 0  2.2 1.8 0  2.4 1.8 0  2.6 1.8 0  2.8 1.8 0  3 1.8 0  3.2 1.8 0  3.4 1.8 0  3.6 1.8 0  3.8 1.8 0  4 1.8 0  4.2 1.8 0  4.4 1.8 0  4.6 1.8 0  4.8 1.8 0  5 1.8 0  5.2 1.8 0  5.4 1.8 0  5.6 1.8 0  5.8 1.8 0  6 1.8 0  6.2 1.8 0  6.4 1.8 0  6.6 1.8 0  6.8 1.8 0  7 1.8 0  7.2 1.8 0  7.4 1.8 0  7.6 1.8 0  7.8 1.8 0  8 1.8 0  8.199999999999999 1.8 0  8.4 1.8 0  8.6 1.8 0  8.800000000000001 1.8 0  9 1.8 0  9.199999999999999 1.8 0  9.4 1.8 0  9.6 1.8 0  9.800000000000001 1.8 0  10 1.8 0  0 2 0  0.2 2 0  0.4 2 0  0.6 2 0  0.8 2 0  1 2 0  1.2 2 0  1.4 2 0  1.6 2 0  1.8 2 0  2 2 0  2.2 2 0  2.4 2 0  2.6 2 0  2.8 2 0  3 2 0  3.2 2 0  3.4 2 0  3.6 2 0  3.8 2 0  4 2 0  4.2 2 0  4.4 2 0  4.6 2 0  4.8 2 0  5 2 0  5.2 2 0  5.4 2 0  5.6 2 0  5.8 2 0  6 2 0  6.2 2 0  6.4 2 0  6.6 2 0  6.8 2 0  7 2 0  7.2 2 0  7.4 2 0  7.6 2 0  7.8 2 0  8 2 0  8.199999999999999 2 0  8.4 2 0  8.6 2 0  8.800000000000001 2 0  9 2 0  9.199999999999999 2 0  9.4 2 0  9.6 2 0  9.800000000000001 2 0  10 2 0  0 2.2 0  0.2 2.2 0  0.4 2.2 0  0.6 2.2 0  0.8 2.2 0  1 2.2 0  1.2 2.2 0  1.4 2.2 0  1.6 2.2 0  1.8 2.2 0  2 2.2 0  2.2 2.2 0  2.4 2.2 0  2.6 2.2 0  2.8 2.2 0  3 2.2 0  3.2 2.2 0  3.4 2.2 0  3.6 2.2 0  3.8 2.2 0  4 2.2 0  4.2 2.2 0  4.4 2.2 0  4.6 2.2 0  4.8 2.2 0  5 2.2 0  5.2 2.2 0  5.4 2.2 0  5.6 2.2 0  5.8 2.2 0  6 2.2 0  6.2 2.2 0  6.4 2.2 0  6.6 2.2 0  6.8 2.2 0  7 2.2 0  7.2 2.2 0  7.4 2.2 0  7.6 2.2 0  7.8 2.2 0  8 2.2 0  8.199999999999999 2.2 0  8.4 2.2 0  8.6 2.2 0  8.800000000000001 2.2 0  9 2.2 0  9.199999999999999 2.2 0  9.4 2.2 0  9.6 2.2 0  9.800000000000001 2.2 0  10 2.2 0  0 2.4 0  0.2 2.4 0  0.4 2.4 0  0.6 2.4 0  0.8 2.4 0  1 2.4 0  1.2 2.4 0  1.4 2.4 0  1.6 2.4 0  1.8 2.4 0  2 2.4 0  2.2 2.4 0  2.4 2.4 0  2.6 2.4 0  2.8 2.4 0  3 2.4 0  3.2 2.4 0  3.4 2.4 0  3.6 2.4 0  3.8 2.4 0  4 2.4 0  4.2 2.4 0  4.4 2.4 0  4.6 2.4 0  4.8 2.4 0  5 2.4 0  5.2 2.4 0  5.4 2.4 0  5.6 2.4 0  5.8 2.4 0  6 2.4 0  6.2 2.4 0  6.4 2.4 0  6.6 2.4 0  6.8 2.4 0  7 2.4 0  7.2 2.4 0  7.4 2.4 0  7.6 2.4 0  7.8 2.4 0  8 2.4 0  8.199999999999999 2.4 0  8.4 2.4 0  8.6 2.4 0  8.800000000000001 2.4 0  9 2.4 0  9.199999999999999 2.4 0  9.4 2.4 0  9.6 2.4 0  9.800000000000001 2.4 0  10 2.4 0  0 2.6 0  0.2 2.6 0  0.4 2.6 0  0.6 2.6 0  0.8 2.6 0  1 2.6 0  1.2 2.6 0  1.4 2.6 0  1.6 2.6 0  1.8 2.6 0  2 2.6 0  2.2 2.6 0  2.4 2.6 0  2.6 2.6 0  2.8 2.6 0  3 2.6 0  3.2 2.6 0  3.4 2.6 0  3.6 2.6 0  3.8 2.6 0  4 2.6 0  4.2 2.6 0  4.4 2.6 0  4.6 2.6 0  4.8 2.6 0  5 2.6 0  5.2 2.6 0  5.4 2.6 0  5.6 2.6 0  5.8 2.6 0  6 2.6 0  6.2 2.6 0  6.4 2.6 0  6.6 2.6 0  6.8 2.6 0  7 2.6 0  7.2 2.6 0  7.4 2.6 0  7.6 2.6 0  7.8 2.6 0  8 2.6 0  8.199999999999999 2.6 0  8.4 2.6 0  8.6 2.6 0  8.800000000000001 2.6 0  9 2.6 0  9.199999999999999 2.6 0  9.4 2.6 0  9.6 2.6 0  9.800000000000001 2.6 0  10 2.6 0  0 2.8 0  0.2 2.8 0  0.4 2.8 0  0.6 2.8 0  0.8 2.8 0  1 2.8 0  1.2 2.8 0  1.4 2.8 0  1.6 2.8 0  1.8 2.8 0  2 2.8 0  2.2 2.8 0  2.4 2.8 0  2.6 2.8 0  2.8 2.8 0  3 2.8 0  3.2 2.8 0  3.4 2.8 0  3.6 2.8 0  3.8 2.8 0  4 2.8 0  4.2 2.8 0  4.4 2.8 0  4.6 2.8 0  4.8 2.8 0  5 2.8 0  5.2 2.8 0  5.4 2.8 0  5.6 2.8 0  5.8 2.8 0  6 2.8 0  6.2 2.8 0  6.4 2.8 0  6.6 2.8 0  6.8 2.8 0  7 2.8 0  7.2 2.8 0  7.4 2.8 0  7.6 2.8 0  7.8 2.8 0  8 2.8 0  8.199999999999999 2.8 0  8.4 2.8 0  8.6 2.8 0  8.800000000000001 2.8 0  9 2.8 0  9.199999999999999 2.8 0  9.4 2.8 0  9.6 2.8 0  9.800000000000001 2.8 0  10 2.8 0  0 3 0  0.2 3 0  0.4 3 0  0.6 3 0  0.8 3 0  1 3 0  1.2 3 0  1.4 3 0  1.6 3 0  1.8 3 0  2 3 0  2.2 3 0  2.4 3 0  2.6 3 0  2.8 3 0  3 3 0  3.2 3 0  3.4 3 0  3.6 3 0  3.8 3 0  4 3 0  4.2 3 0  4.4 3 0  4.6 3 0  4.8 3 0  5 3 0  5.2 3 0  5.4 3 0  5.6 3 0  5.8 3 0  6 3 0  6.2 3 0  6.4 3 0  6.6 3 0  6.8 3 0  7 3 0  7.2 3 0  7.4 3 0  7.6 3 0  7.8 3 0  8 3 0  8.199999999999999 3 0  8.4 3 0  8.6 3 0  8.800000000000001 3 0  9 3 0  9.199999999999999 3 0  9.4 3 0  9.6 3 0  9.800000000000001 3 0  10 3 0  0 3.2 0  0.2 3.2 0  0.4 3.2 0  0.6 3.2 0  0.8 3.2 0  1 3.2 0  1.2 3.2 0  1.4 3.2 0  1.6 3.2 0  1.8 3.2 0  2 3.2 0  2.2 3.2 0  2.4 3.2 0  2.6 3.2 0  2.8 3.2 0  3 3.2 0  3.2 3.2 0  3.4 3.2 0  3.6 3.2 0  3.8 3.2 0  4 3.2 0  4.2 3.2 0  4.4 3.2 0  4.6 3.2 0  4.8 3.2 0  5 3.2 0  5.2 3.2 0  5.4 3.2 0  5.6 3.2 0  5.8 3.2 0  6 3.2 0  6.2 3.2 0  6.4 3.2 0  6.6 3.2 0  6.8 3.2 0  7 3.2 0  7.2 3.2 0  7.4 3.2 0  7.6 3.2 0  7.8 3.2 0  8 3.2 0  8.199999999999999 3.2 0  8.4 3.2 0  8.6 3.2 0  8.800000000000001 3.2 0  9 3.2 0  9.199999999999999 3.2 0  9.4 3.2 0  9.6 3.2 0  9.800000000000001 3.2 0  10 3.2 0  0 3.4 0  0.2 3.4 0  0.4 3.4 0  0.6 3.4 0  0.8 3.4 0  1 
[...]
<PointData  Scalars="f_13"> 
<DataArray  type="Float64"  Name="f_13"  format="ascii">3.9337522109651712e+00  3.9132035703958907e+00  3.8917989899603374e+00  3.8695046684985002e+00  3.8462874720471953e+00  3.8221154454112138e+00  3.7969584147651783e+00  3.7707886869007146e+00  3.7435818480119041e+00  3.7153176609700220e+00  3.6859810546944924e+00  3.6555631923696423e+00  3.6240625969013704e+00  3.5914863023562007e+00  3.5578509896350030e+00  3.5231840540693442e+00  3.4875245430846360e+00  3.4509238949453351e+00  3.4134464064668983e+00  3.3751693600240831e+00  3.3361827494921696e+00  3.2965885615918893e+00  3.2564995931946563e+00  3.2160378150516906e+00  3.1753323255301078e+00  3.1345169707180771e+00  3.0937277356957198e+00  3.0531000320765864e+00  3.0127660162606413e+00  2.9728520698667418e+00  2.9334765589780329e+00  2.8947479642744609e+00  2.8567634432284619e+00  2.8196078522710870e+00  2.7833532250360111e+00  2.7480586755731746e+00  2.7137706748193646e+00  2.6805236354583424e+00  2.6483407343803376e+00  2.6172349022593071e+00  2.5872099148572203e+00  2.5582615289497368e+00  2.5303786157584787e+00  2.5035442552336700e+00  2.4777367645362856e+00  2.4529306430177433e+00  2.4290974235637335e+00  2.4062064262505318e+00  2.3842254149051403e+00  2.3631211605088711e+00  2.3493686471033857e+00  3.9545722028685786e+00  3.9340351791513353e+00  3.9126051929203105e+00  3.8902436465117032e+00  3.8669122365979778e+00  3.8425734866676509e+00  3.8171913879311585e+00  3.7907321583165605e+00  3.7631651266679662e+00  3.7344637451913933e+00  3.7046067272909942e+00  3.6735792999438517e+00  3.6413745495472805e+00  3.6079948278363836e+00  3.5734531704413093e+00  3.5377746657995557e+00  3.5009976978329380e+00  3.4631749739266073e+00  3.4243742425979993e+00  3.3846786052537787e+00  3.3441863357856074e+00  3.3030101418523916e+00  3.2612758326176379e+00  3.2191203977886800e+00  3.1766895484921593e+00  3.1341348166707244e+00  3.0916103502837937e+00  3.0492695708315996e+00  3.0072618731675154e+00  2.9657295431301192e+00  2.9248050469361284e+00  2.8846088108912542e+00  2.8452475660561740e+00  2.8068132860887225e+00  2.7693827032403404e+00  2.7330173517914993e+00  2.6977640626557386e+00  2.6636558182067356e+00  2.6307128717861463e+00  2.5989440399893966e+00  2.5683480853623015e+00  2.5389151202010658e+00  2.5106279766548285e+00  2.4834635026703782e+00  2.4573937563946036e+00  2.4323870828304974e+00  2.4084090655749377e+00  2.3854233533716966e+00  2.3633923661833460e+00  2.3422778888059774e+00  2.3285375143894442e+00  3.9762462853870475e+00  3.9557592646339281e+00  3.9343423804588458e+00  3.9119517991861876e+00  3.8885435104453858e+00  3.8640738694711536e+00  3.8385002665980670e+00  3.8117819388655678e+00  3.7838809365974799e+00  3.7547632539478677e+00  3.7244001262097646e+00  3.6927694876846600e+00  3.6598575717453872e+00  3.6256606192752989e+00  3.5901866432294200e+00  3.5534571765284602e+00  3.5155089095112744e+00  3.4763951042183692e+00  3.4361866591068435e+00  3.3949726931211730e+00  3.3528605259792741e+00  3.3099749547891215e+00  3.2664567665654127e+00  3.2224604801178574e+00  3.1781513743581917e+00  3.1337019258217942e+00  3.0892878369722125e+00  3.0450838795848862e+00  3.0012597971708956e+00  2.9579765036815404e+00  2.9153827838144646e+00  2.8736126485164770e+00  2.8327834360506476e+00  2.7929946835891846e+00  2.7543277351517830e+00  2.7168460049727248e+00  2.6805957842262829e+00  2.6456074637766851e+00  2.6118970443250102e+00  2.5794678147475052e+00  2.5483120958484262e+00  2.5184129667050015e+00  2.4897459114258571e+00  2.4622803434568086e+00  2.4359809813222917e+00  2.4108090633277670e+00  2.3867233991986283e+00  2.3636812641439948e+00  2.3416391458299848e+00  2.3205533577112418e+00  2.3068506400400035e+00  3.9988064686268503e+00  3.9784125811741147e+00  3.9570525123816527e+00  3.9346767563312008e+00  3.9112350468667523e+00  3.8866768940181911e+00  3.8609522671035892e+00  3.8340124460414127e+00  3.8058110613232654e+00  3.7763053399305799e+00  3.7454575684777849e+00  3.7132367752358220e+00  3.6796206187003313e+00  3.6445974515175301e+00  3.6081685048440399e+00  3.5703501103414581e+00  3.5311758468217702e+00  3.4906984692127052e+00  3.4489914535071127e+00  3.4061499782674551e+00  3.3622911669559969e+00  3.3175534408287435e+00  3.2720948818929996e+00  3.2260905780669651e+00  3.1797290119086474e+00  3.1332076491216707e+00  3.0867279694012790e+00  3.0404902456556595e+00  2.9946884068854702e+00  2.9495053096364829e+00  2.9051086949418075e+00  2.8616480308675314e+00  2.8192523485215362e+00  2.7780290862849881e+00  2.7380638757574549e+00  2.6994211420230281e+00  2.6621453539683393e+00  2.6262627466779422e+00  2.5917833434061635e+00  2.5587031236983555e+00  2.5270062111354692e+00  2.4966669838989661e+00  2.4676520401522817e+00  2.4399219757133999e+00  2.4134329524440608e+00  2.3881380518992086e+00  2.3639884203609589e+00  2.3409342190498053e+00  2.3189253978211561e+00  2.2979123127730166e+00  2.2842758442211264e+00  4.0222838218478092e+00  4.0020312755368650e+00  3.9807773697178419e+00  3.9584665083974877e+00  3.9350416251385161e+00  3.9104446923433356e+00  3.8846173963559902e+00  3.8575020079837268e+00  3.8290424785778368e+00  3.7991857901045716e+00  3.7678835826346631e+00  3.7350940731681175e+00  3.7007842644137843e+00  3.6649324199325974e+00  3.6275307522804687e+00  3.5885882337372479e+00  3.5481333966434772e+00  3.5062169460393506e+00  3.4629139672612781e+00  3.4183254835765440e+00  3.3725791132304415e+00  3.3258286002830828e+00  3.2782520550781804e+00  3.2300488380265180e+00  3.1814351466496245e+00  3.1326385044224900e+00  3.0838914788793850e+00  3.0354250524184874e+00  2.9874621135500261e+00  2.9402115200281278e+00  2.8938631117931419e+00  2.8485839356823575e+00  2.8045158073394227e+00  2.7617742018924485e+00  2.7204483529454526e+00  2.6806023609659446e+00  2.6422770707341128e+00  2.6054924697465660e+00  2.5702503776127905e+00  2.5365372312034982e+00  2.5043268127980327e+00  2.4735828117381207e+00  2.4442611494064859e+00  2.4163120301330894e+00  2.3896817060078028e+00  2.3643139618159039e+00  2.3401513383421717e+00  2.3171361193162494e+00  2.2952111105236437e+00  2.2743202401858813e+00  2.2607818912892017e+00  4.0467079435601496e+00  4.0266503280248145e+00  4.0055579760697775e+00  3.9833688217253438e+00  3.9600184787603800e+00  3.9354406950609322e+00  3.9095679900428078e+00  3.8823325141918197e+00  3.8536671728230880e+00  3.8235070569526424e+00  3.7917912213974443e+00  3.7584648421177520e+00  3.7234817693631150e+00  3.6868074682924084e+00  3.6484223026739366e+00  3.6083250693039899e+00  3.5665366320637650e+00  3.5231034390928153e+00  3.4781006421263920e+00  3.4316344853089094e+00  3.3838436064991098e+00  3.3348989125622786e+00  3.2850017632663793e+00  3.2343803295945706e+00  3.1832841722799237e+00  3.1319772916561388e+00  3.0807300957279131e+00  3.0298108813069300e+00  2.9794774915540922e+00  2.9299697870946879e+00  2.8815034530067423e+00  2.8342654856765379e+00  2.7884114984287498e+00  2.7440647904853042e+00  2.7013169692968066e+00  2.6602298172035974e+00  2.6208380514720497e+00  2.5831526332793922e+00  2.5471643218683977e+00  2.5128472295566828e+00  2.4801621984555853e+00  2.4490598812389011e+00  2.4194834605967301e+00  2.3913709828526999e+00  2.3646573106296964e+00  2.3392757187780977e+00  2.3151591689799313e+00  2.2922413035529483e+00  2.2704571998375798e+00  2.2497439246665629e+00  2.2363390267673844e+00  4.0721063450980033e+00  4.0523028892393418e+00  4.0314338949896680e+00  4.0094305088814117e+00  3.9862205574127429e+00  3.9617289114588505e+00  3.9358780468038645e+00  3.9085888505621664e+00  3.8797817297426986e+00  3.8493780829112163e+00  3.8173021971072880e+00  3.7834836275237373e+00  3.7478601039659023e+00  3.7103809823183642e+00  3.6710112176798080e+00  3.6297357758439297e+00  3.5865643209265272e+00  3.5415359225808212e+00  3.4947234255226522e+00  3.4462370330426131e+00  3.3962265973850290e+00  3.3448821093584242e+00  3.2924319605015619e+00  3.2391387251031745e+00  3.1852924674948597e+00  3.1312018883769346e+00  3.0771839268717120e+00  3.0235526679194771e+00  2.9706085128998567e+00  2.9186285283860904e+00  2.8678587044989832e+00  2.8185085747616925e+00  2.7707483364286021e+00  2.7247083255195275e+00  2.6804804884539890e+00  2.6381213716590848e+00  2.5976561180456867e+00  2.5590829954441987e+00  2.5223780612517372e+00  2.4874996651828165e+00  2.4543925892870337e+00  2.4229917094594970e+00  2.3932251299852139e+00  2.3650167913165325e+00  2.3382885831778455e+00  2.3129620134249524e+00  2.2889594913297349e+00  2.2662052852661700e+00  2.2446262117093330e+00  2.2241521069552452e+00  2.2109196025692919e+00  4.0985037441552041e+00  4.0790195053284206e+00  4.0584423913523091e+00  4.0366965357935403e+00  4.0137015965421403e+00  3.9893729874187089e+00  3.9636223119466627e+00  3.9363580603677568e+00  3.9074866421189571e+00  3.8769138363047126e+00  3.8445467502340569e+00  3.8102963778974517e+00  3.7740808422213705e+00  3.7358293817854760e+00  3.6954870983531123e+00  3.6530204101653609e+00  3.6084230536036763e+00  3.5617223434435190e+00  3.5129852486650743e+00  3.4623236873156102e+00  3.4098983236599136e+00  3.3559201070053160e+00  3.3006488679022565e+00  3.2443885129265260e+00  3.1874787306855366e+00  3.1302835913959357e+00  3.0731779004462290e+00  3.0165325416600743e+00  2.9607002213820115e+00  2.9060029521866499e+00  2.8527223149659804e+00  2.8010930904504225e+00  2.7513003659225870e+00  2.7034798025370255e+00  2.6577204599662734e+00  2.6140694388899535e+00  2.5725376003205134e+00  2.5331057140105364e+00  2.4957305312826126e+00  2.4603504325542769e+00  2.4268904408632479e+00  2.3952665064825300e+00  2.3653890505358217e+00  2.3371658097377175e+00  2.3105040553017915e+00  2.2853122727553972e+00  2.2615013914415774e+00  2.2389856473806051e+00  2.2176831542360826e+00  2.1975162466604545e+00  2.1844987940150395e+00  4.1259212678388986e+00  4.1068272276235085e+00  4.0866174474935422e+00  4.0652089495007599e+00  4.0425129692914350e+00  4.0184350043757231e+00  3.9928750599237155e+00  3.9657281641399411e+00  3.9368852422522980e+00  3.9062344560304565e+00  3.8736631325580633e+00  3.8390604183533346e+00  3.8023207976395912e+00  3.7633485991784359e+00  3.7220635749897575e+00  3.6784075555515110e+00  3.6323520596078653e+00  3.5839065573382762e+00  3.5331268591093408e+00  3.4801228520687655e+00  3.4250645805164086e+00  3.3681855329586625e+00  3.3097820392835295e+00  3.2502079608726198e+00  3.1898643904650172e+00  3.1291848041337298e+00  3.0686168784539793e+00  3.0086028062677674e+00  2.9495602365315854e+00  2.8918658386774432e+00  2.8358429880517848e+00  2.7817543354357879e+00  2.7297992583988200e+00  2.6801155686232816e+00  2.6327844659223696e+00  2.5878375996622682e+00  2.5452651714681882e+00  2.5050242108748821e+00  2.4670464016857960e+00  2.4312450747081624e+00  2.3975211800184968e+00  2.3657681973131472e+00  2.3358760381362926e+00  2.3077340477000097e+00  2.2812332375406932e+00  2.2562678835640155e+00  2.2327366152906398e+00  2.2105431072533706e+00  2.1895964664495113e+00  2.1698113929099505e+00  2.1570554089790575e+00  4.1543755690234132e+00  4.1357486071161595e+00  4.1159886295043364e+00  4.0950056146061238e+00  4.0727022987549635e+00  4.0489739838299634e+00  4.0237085228154053e+00  3.9967865644799918e+00  3.9680821621879816e+00  3.9374638792492958e+00  3.9047965526394997e+00  3.8699439050498441e+00  3.8327722160898392e+00  3.7931552674747331e+00  3.7509807502658568e+00  3.7061582465615439e+00  3.6586287531141961e+00  3.6083754827849224e+00  3.5554353565374019e+00  3.4999102046569996e+00  3.4419762918938410e+00  3.3818904751271814e+00  3.3199912371358558e+00  3.2566931544944917e+00  3.1924741186834358e+00  3.1278557649713807e+00  3.0633788348891082e+00  2.9995762526888847e+00  2.9369471976989883e+00  2.8759352316215132e+00  2.8169126686903612e+00  2.7601721444594700e+00  2.7059251119816192e+00  2.6543060687451177e+00  2.6053808326613708e+00  2.5591571200121384e+00  2.5155959112925554e+00  2.4746224730180661e+00  2.4361363099306885e+00  2.4000196741548647e+00  2.3661445218596495e+00  2.3343779815482892e+00  2.3045864957615940e+00  2.2766388399758664e+00  2.2504082280747477e+00  2.2257736983791236e+00  2.2026209487602340e+00  2.1808427608602377e+00  2.1603391259609879e+00  2.1410171606085036e+00  2.1285727850987590e+00  4.1838778652884638e+00  4.1658005804875717e+00  4.1465798059243042e+00  4.1261187535982193e+00  4.1043118151869500e+00  4.0810440670840569e+00  4.0561909141618546e+00  4.0296179586578553e+00  4.0011812117032353e+00  3.9707278034556905e+00  3.9380973931141998e+00  3.9031245298808188e+00  3.8656422644434807e+00  3.8254873468208852e+00  3.7825073521653381e+00  3.7365700241919892e+00  3.6875749806711475e+00  3.6354676478496208e+00  3.5802548511737653e+00  3.5220208910876112e+00  3.4609422410298949e+00  3.3972983765040863e+00  3.3314759261327676e+00  3.2639636096426763e+00  3.1953364874677277e+00  3.1262298433474220e+00  3.0573051698744504e+00  2.9892125765381463e+00  2.9225548311221288e+00  2.8578578345684411e+00  2.7955507738203402e+00  2.7359570712132588e+00  2.6792952498334728e+00  2.6256874726026203e+00  2.5751729619241814e+00  2.5277236434657580e+00  2.4832599106439974e+00  2.4416651017321067e+00  2.4027979257319907e+00  2.3665025702262015e+00  2.3326165539721737e+00  2.3009765716340937e+00  2.2714226563286943e+00  2.2438009956540128e+00  2.2179657088573186e+00  2.1937798477693775e+00  2.1711158350576918e+00  2.1498555073068504e+00  2.1298898906293471e+00  2.1111188038488962e+00  2.0990397652406050e+00  4.2144329165391854e+00  4.1969932625365693e+00  4.1784077305102514e+00  4.1585732967240121e+00  4.1373764538554347e+00  4.1146923504643595e+00  4.0903840058551362e+00  4.0643016853374743e+00  4.0362825587832099e+00  4.0061508153208853e+00  3.9737184705714550e+00  3.9387871799036311e+00  3.9011514581025515e+00  3.8606037923885346e+00  3.8169422009936196e+00  3.7699807971166486e+00  3.7195638124899362e+00  3.6655832428231565e+00  3.6079997217766313e+00  3.5468653634588136e+00  3.4823461767715411e+00  3.4147404492910205e+00  3.3444886284170328e+00  3.2721702469346692e+00  3.1984848385431404e+00  3.1242166512638079e+00  3.0501866924044241e+00  2.9771989970767212e+00  2.9059896592652827e+00  2.8371863782206024e+00  2.7712833929359659e+00  2.7086329015491715e+00  2.6494507592895356e+00  2.5938322951753428e+00  2.5417736296452773e+00  2.4931945166647971e+00  2.4479598966277689e+00  2.4058985504049462e+00  2.3668182173444330e+00  2.3305171950215766e+00  2.2967928049929442e+00  2.2654472621998689e+00  2.2362915046743308e+00  2.2091474873243913e+00  2.1838493610181033e+00  2.1602438708629204e+00  2.1381902281634915e+00  2.1175596440551754e+00  2.0982346600179507e+00  2.0801083700824838e+00  2.0684517343387214e+00  4.2460379654277718e+00  4.2293286698574333e+00  4.2114805129590751e+00  4.1923850615535780e+00  4.1719217056955626e+00  4.1499563739628504e+00  4.1263402330616357e+00  4.1009084456956213e+00  4.0734791032561173e+00  4.0438525098265261e+00  4.0118110758990477e+00  3.9771201881037910e+00  3.9395305564672651e+00  3.8987826978914186e+00  3.8546143750488966e+00  3.8067719321514542e+00  3.7550264768650901e+00  3.6991956312721670e+00  3.6391709561700147e+00  3.5749499849166564e+00  3.5066700247500311e+00  3.4346386872936425e+00  3.3593541037250541e+00  3.2815070073947479e+00  3.2019584841368371e+00  3.1216917430280327e+00  3.0417428946248233e+00  2.9631220614533693e+00  2.8867393267691059e+00  2.8133484567346723e+00  2.7435157786820596e+00  2.6776146802785910e+00  2.6158406840144037e+00  2.5582394188983004e+00  2.5047399239748769e+00  2.4551874986248512e+00  2.4093725855598791e+00  2.3670541501286286e+00  2.3279773892484021e+00  2.2918863722393068e+00  2.2585325342322791e+00  2.2276799817846729e+00  2.1991084662575631e+00  2.1726147228218418e+00  2.1480127117358832e+00  2.1251331570876588e+00  2.1038226641013003e+00  2.0839426089114585e+00  2.0653679305564201e+00  2.0479859090962855e+00  2.0368116924115638e+00  4.2786816736407474e+00  4.2627994122640311e+00  4.2457960163508845e+00  4.2275588009820702e+00  4.2079612554970165e+00  4.1868612875670408e+00  4.1640993310949117e+00  4.1394963681200432e+00  4.1128519581346366e+00  4.0839424336745509e+00  4.0525195173803796e+00  4.0183097531060872e+00  3.9810153321791337e+00  3.9403171414953859e+00  3.8958811559854425e+00  3.8473696092952712e+00  3.7944586164467737e+00  3.7368639216311692e+00  3.6743759285718811e+00  3.6069037790990666e+00  3.5345256528261109e+00  3.4575386679272104e+00  3.3764975308964078e+00  3.2922282568474746e+00  3.2058044635434038e+00  3.1184808447465855e+00  3.0315905567175592e+00  2.9464257385645736e+00  2.8641268513437863e+00  2.7856032249184275e+00  2.7114959964953251e+00  2.6421815284990644e+00  2.5778042007735666e+00  2.5183244673812100e+00  2.4635700115146002e+00  2.4132820197311382e+00  2.3671527632637210e+00  2.3248537029565242e+00  2.2860550544382532e+00  2.2504384568830789e+00  2.2177044757917113e+00  2.1875764551442232e+00  2.1598019185897139e+00  2.1341524089223807e+00  2.1104223939597104e+00  2.0884276653445117e+00  2.0680035095383964e+00  2.0490028268815972e+00  2.0312943042181715e+00  2.0147606999654575e+00  2.0041313293458107e+00  4.3123430964535112e+00  4.2973874011859179e+00  4.2813402371408626e+00  4.2640861808538171e+00  4.2454944711972491e+00  4.2254167555232724e+00  4.2036845512700607e+00  4.1801064343637693e+00  4.1544650031494292e+00  4.1265137292792025e+00  4.0959739079519650e+00  4.0625320769480719e+00  4.0258385097416802e+00  3.9855077278288453e+00  3.9411224411259083e+00  3.8922429084219967e+00  3.8384243460238321e+00  3.7792455100559406e+00  3.7143515342545519e+00  3.6435128438693236e+00  3.5666986105517613e+00  3.4841571070368027e+00  3.3964869747281186e+00  3.3046757251634453e+00  3.2100803137290832e+00  3.1143350575959028e+00  3.0191948778344604e+00  2.9263476575418585e+00  2.8372434322752951e+00  2.7529808148239439e+00  2.6742672449428935e+00  2.6014440151193772e+00  2.5345520057133628e+00  2.4734124249108231e+00  2.4177037103377579e+00  2.3670247184490663e+00  2.3209414370363488e+00  2.2790185979837396e+00  2.2408392649672257e+00  2.2060156856652489e+00  2.1741942274350632e+00  2.1450565478112189e+00  2.1183185241121909e+00  2.0937279646768920e+00  2.0710617567207508e+00  2.0501228516004169e+00  2.0307373196792691e+00  2.0127515989710076e+00  1.9960299947803566e+00  1.9804524475555538e+00  1.9704320574858087e+00  4.3469907468893503e+00  4.3330626371229721e+00  4.3180857416991945e+00  4.3019437735955703e+00  4.2845038421089079e+00  4.2656137042464772e+00  4.2450985613296073e+00  4.2227573574409867e+00  4.1983585593157713e+00  4.1716354448401516e+00  4.1422810159224266e+00  4.1099428064544714e+00  4.0742181147572296e+00  4.0346506040486112e+00  3.9907298481264077e+00  3.9418963143486563e+00  3.8875554883604284e+00  3.8271062276173873e+00  3.7599895309491598e+00  3.6857636914852030e+00  3.6042084442355384e+00  3.5154519537922502e+00  3.4200991948975838e+00  3.3193218171864203e+00  3.2148588922027446e+00  3.1088907154704559e+00  3.0037910677003690e+00  2.9018196089061608e+00  2.8048481694894991e+00  2.7141973891062183e+00  2.6306065023215237e+00  2.5543072243421463e+00  2.4851498857913406e+00  2.4227359551735352e+00  2.3665299799833037e+00  2.3159416756573790e+00  2.2703797484575099e+00  2.2292835186364872e+00  2.1921390043027293e+00  2.1584850240108246e+00  2.1279133696933652e+00  2.1000657622874690e+00  2.0746292940910309e+00  2.0513313693695974e+00  2.0299347070513560e+00  2.0102326930044305e+00  1.9920452057755595e+00  1.9752149471252018e+00  1.9596042594779592e+00  1.9450923887988425e+00  1.9357459490352380e+00  4.3825818082879104e+00  4.3697821498565101e+00  4.3559902509464248e+00  4.3410911801514001e+00  4.3249525013382817e+00  4.3074210724896851e+00  4.2883192089564117e+00  4.2674400990272936e+00  4.2445423584040736e+00  4.2193436270200984e+00  4.1915131639278744e+00  4.1606635134280889e+00  4.1263415478333725e+00  4.0880196189053626e