<?xml version="1.0"?>
<VTKFile type="UnstructuredGrid"  version="0.1"  >
<UnstructuredGrid>
<Piece  NumberOfPoints="2704" NumberOfCells="5202">
<Points>
<DataArray  type="Float64"  NumberOfComponents="3"  format="ascii">0 0 0  0.196078431372549 0 0  0.392156862745098 0 0  0.5882352941176471 0 0  0.7843137254901961 0 0  0.9803921568627451 0 0  1.176470588235294 0 0  1.372549019607843 0 0  1.568627450980392 0 0  1.764705882352941 0 0  1.96078431372549 0 0  2.156862745098039 0 0  2.352941176470588 0 0  2.549019607843137 0 0  2.745098039215686 0 0  2.941176470588236 0 0  3.137254901960784 0 0  3.333333333333333 0 0  3.529411764705882 0 0  3.725490196078431 0 0  3.92156862745098 0 0  4.117647058823529 0 0  4.313725490196078 0 0  4.509803921568627 0 0  4.705882352941177 0 0  4.901960784313726 0 0  5.098039215686274 0 0  5.294117647058823 0 0  5.490196078431373 0 0  5.686274509803922 0 0  5.882352941176471 0 0  6.078431372549019 0 0  6.274509803921569 0 0  6.470588235294118 0 0  6.666666666666667 0 0  6.862745098039215 0 0  7.058823529411764 0 0  7.254901960784314 0 0  7.450980392156863 0 0  7.647058823529412 0 0  7.84313725490196 0 0  8.03921568627451 0 0  8.235294117647058 0 0  8.431372549019608 0 0  8.627450980392156 0 0  8.823529411764707 0 0  9.019607843137255 0 0  9.215686274509803 0 0  9.411764705882353 0 0  9.607843137254902 0 0  9.803921568627452 0 0  10 0 0  0 0.196078431372549 0  0.196078431372549 0.196078431372549 0  0.392156862745098 0.196078431372549 0  0.5882352941176471 0.196078431372549 0  0.7843137254901961 0.196078431372549 0  0.9803921568627451 0.196078431372549 0  1.176470588235294 0.196078431372549 0  1.372549019607843 0.196078431372549 0  1.568627450980392 0.196078431372549 0  1.764705882352941 0.196078431372549 0  1.96078431372549 0.196078431372549 0  2.156862745098039 0.196078431372549 0  2.352941176470588 0.196078431372549 0  2.549019607843137 0.196078431372549 0  2.745098039215686 0.196078431372549 0  2.941176470588236 0.196078431372549 0  3.137254901960784 0.196078431372549 0  3.333333333333333 0.196078431372549 0  3.529411764705882 0.196078431372549 0  3.725490196078431 0.196078431372549 0  3.92156862745098 0.196078431372549 0  4.117647058823529 0.196078431372549 0  4.313725490196078 0.196078431372549 0  4.509803921568627 0.196078431372549 0  4.705882352941177 0.196078431372549 0  4.901960784313726 0.196078431372549 0  5.098039215686274 0.196078431372549 0  5.294117647058823 0.196078431372549 0  5.490196078431373 0.196078431372549 0  5.686274509803922 0.196078431372549 0  5.882352941176471 0.196078431372549 0  6.078431372549019 0.196078431372549 0  6.274509803921569 0.196078431372549 0  6.470588235294118 0.196078431372549 0  6.666666666666667 0.196078431372549 0  6.862745098039215 0.196078431372549 0  7.058823529411764 0.196078431372549 0  7.254901960784314 0.196078431372549 0  7.450980392156863 0.196078431372549 0  7.647058823529412 0.196078431372549 0  7.84313725490196 0.196078431372549 0  8.03921568627451 0.196078431372549 0  8.235294117647058 0.196078431372549 0  8.431372549019608 0.196078431372549 0  8.627450980392156 0.196078431372549 0  8.823529411764707 0.196078431372549 0  9.019607843137255 0.196078431372549 0  9.215686274509803 0.196078431372549 0  9.411764705882353 0.196078431372549 0  9.607843137254902 0.196078431372549 0  9.803921568627452 0.196078431372549 0  10 0.196078431372549 0  0 0.392156862745098 0  0.196078431372549 0.392156862745098 0  0.392156862745098 0.392156862745098 0  0.5882352941176471 0.392156862745098 0  0.7843137254901961 0.392156862745098 0  0.9803921568627451 0.392156862745098 0  1.176470588235294 0.392156862745098 0  1.372549019607843 0.392156862745098 0  1.568627450980392 0.392156862745098 0  1.764705882352941 0.392156862745098 0  1.96078431372549 0.392156862745098 0  2.156862745098039 0.392156862745098 0  2.352941176470588 0.392156862745098 0  2.549019607843137 0.392156862745098 0  2.745098039215686 0.392156862745098 0  2.941176470588236 0.392156862745098 0  3.137254901960784 0.392156862745098 0  3.333333333333333 0.392156862745098 0  3.529411764705882 0.392156862745098 0  3.725490196078431 0.392156862745098 0  3.92156862745098 0.392156862745098 0  4.117647058823529 0.392156862745098 0  4.313725490196078 0.392156862745098 0  4.509803921568627 0.392156862745098 0  4.705882352941177 0.392156862745098 0  4.901960784313726 0.392156862745098 0  5.098039215686274 0.392156862745098 0  5.294117647058823 0.392156862745098 0  5.490196078431373 0.392156862745098 0  5.686274509803922 0.392156862745098 0  5.882352941176471 0.392156862745098 0  6.078431372549019 0.392156862745098 0  6.274509803921569 0.392156862745098 0  6.470588235294118 0.392156862745098 0  6.666666666666667 0.392156862745098 0  6.862745098039215 0.392156862745098 0  7.058823529411764 0.392156862745098 0  7.254901960784314 0.392156862745098 0  7.450980392156863 0.392156862745098 0  7.647058823529412 0.392156862745098 0  7.84313725490196 0.392156862745098 0  8.03921568627451 0.392156862745098 0  8.235294117647058 0.392156862745098 0  8.431372549019608 0.392156862745098 0  8.627450980392156 0.392156862745098 0  8.823529411764707 0.392156862745098 0  9.019607843137255 0.392156862745098 0  9.215686274509803 0.392156862745098 0  9.411764705882353 0.392156862745098 0  9.607843137254902 0.392156862745098 0  9.803921568627452 0.392156862745098 0  10 0.392156862745098 0  0 0.5882352941176471 0  0.196078431372549 0.5882352941176471 0  0.392156862745098 0.5882352941176471 0  0.5882352941176471 0.5882352941176471 0  0.7843137254901961 0.5882352941176471 0  0.9803921568627451 0.5882352941176471 0  1.176470588235294 0.5882352941176471 0  1.372549019607843 0.5882352941176471 0  1.568627450980392 0.5882352941176471 0  1.764705882352941 0.5882352941176471 0  1.96078431372549 0.5882352941176471 0  2.156862745098039 0.5882352941176471 0  2.352941176470588 0.5882352941176471 0  2.549019607843137 0.5882352941176471 0  2.745098039215686 0.5882352941176471 0  2.941176470588236 0.5882352941176471 0  3.137254901960784 0.5882352941176471 0  3.333333333333333 0.5882352941176471 0  3.529411764705882 0.5882352941176471 0  3.725490196078431 0.5882352941176471 0  3.92156862745098 0.5882352941176471 0  4.117647058823529 0.5882352941176471 0  4.313725490196078 0.5882352941176471 0  4.509803921568627 0.5882352941176471 0  4.705882352941177 0.5882352941176471 0  4.901960784313726 0.5882352941176471 0  5.098039215686274 0.5882352941176471 0  5.294117647058823 0.5882352941176471 0  5.490196078431373 0.5882352941176471 0  5.686274509803922 0.5882352941176471 0  5.882352941176471 0.5882352941176471 0  6.078431372549019 0.5882352941176471 0  6.274509803921569 0.5882352941176471 0  6.470588235294118 0.5882352941176471 0  6.666666666666667 0.5882352941176471 0  6.862745098039215 0.5882352941176471 0  7.058823529411764 0.5882352941176471 0  7.254901960784314 0.5882352941176471 0  7.450980392156863 0.5882352941176471 0  7.647058823529412 0.5882352941176471 0  7.84313725490196 0.5882352941176471 0  8.03921568627451 0.5882352941176471 0  8.235294117647058 0.5882352941176471 0  8.431372549019608 0.5882352941176471 0  8.627450980392156 0.5882352941176471 0  8.823529411764707 0.5882352941176471 0  9.019607843137255 0.5882352941176471 0  9.215686274509803 0.5882352941176471 0  9.411764705882353 0.5882352941176471 0  9.607843137254902 0.5882352941176471 0  9.803921568627452 0.5882352941176471 0  10 0.5882352941176471 0  0 0.7843137254901961 0  0.196078431372549 0.7843137254901961 0  0.392156862745098 0.7843137254901961 0  0.5882352941176471 0.7843137254901961 0  0.7843137254901961 0.7843137254901961 0  0.9803921568627451 0.7843137254901961 0  1.176470588235294 0.7843137254901961 0  1.372549019607843 0.7843137254901961 0  1.568627450980392 0.7843137254901961 0  1.764705882352941 0.7843137254901961 0  1.96078431372549 0.7843137254901961 0  2.156862745098039 0.7843137254901961 0  2.352941176470588 0.7843137254901961 0  2.549019607843137 0.7843137254901961 0  2.745098039215686 0.7843137254901961 0  2.941176470588236 0.7843137254901961 0  3.137254901960784 0.7843137254901961 0  3.333333333333333 0.7843137254901961 0  3.529411764705882 0.7843137254901961 0  3.725490196078431 0.7843137254901961 0  3.92156862745098 0.7843137254901961 0  4.117647058823529 0.7843137254901961 0  4.313725490196078 0.7843137254901961 0  4.509803921568627 0.7843137254901961 0  4.705882352941177 0.7843137254901961 0  4.901960784313726 0.7843137254901961 0  5.098039215686274 0.7843137254901961 0  5.294117647058823 0.7843137254901961 0  5.490196078431373 0.7843137254901961 0  5.686274509803922 0.7843137254901961 0  5.882352941176471 0.7843137254901961 0  6.078431372549019 0.7843137254901961 0  6.274509803921569 0.7843137254901961 0  6.470588235294118 0.7843137254901961 0  6.666666666666667 0.7843137254901961 0  6.862745098039215 0.7843137254901961 0  7.058823529411764 0.7843137254901961 0  7.254901960784314 0.7843137254901961 0  7.450980392156863 0.7843137254901961 0  7.647058823529412 0.7843137254901961 0  7.84313725490196 0.7843137254901961 0  8.03921568627451 0.7843137254901961 0  8.235294117647058 0.7843137254901961 0  8.431372549019608 0.7843137254901961 0  8.627450980392156 0.7843137254901961 0  8.823529411764707 0.7843137254901961 0  9.019607843137255 0.7843137254901961 0  9.215686274509803 0.7843137254901961 0  9.411764705882353 0.7843137254901961 0  9.607843137254902 0.7843137254901961 0  9.803921568627452 0.7843137254901961 0  10 0.7843137254901961 0  0 0.9803921568627451 0  0.196078431372549 0.9803921568627451 0  0.392156862745098 0.9803921568627451 0  0.5882352941176471 0.9803921568627451 0  0.7843137254901961 0.9803921568627451 0  0.9803921568627451 0.9803921568627451 0  1.176470588235294 0.9803921568627451 0  1.372549019607843 0.9803921568627451 0  1.568627450980392 0.9803921568627451 0  1.764705882352941 0.9803921568627451 0  1.96078431372549 0.9803921568627451 0  2.156862745098039 0.9803921568627451 0  2.352941176470588 0.9803921568627451 0  2.549019607843137 0.98
[...]
<PointData  Scalars="f_12"> 
<DataArray  type="Float64"  Name="f_12"  format="ascii">-2.5386307345996685e-04  1.7657129495863340e-05  3.5571591231632868e-05  5.9475498488558614e-05  9.0023340552104381e-05  1.2841820786087114e-04  1.7596146653418274e-04  2.3402710243544908e-04  3.0402364216265384e-04  3.8734196652243059e-04  4.8528794490535003e-04  5.9899980878241790e-04  7.2935158873950316e-04  8.7684575355910239e-04  1.0415003313915584e-03  1.2227380882734230e-03  1.4192875097484405e-03  1.6291070017321945e-03  1.8493444598451285e-03  2.0763437207086885e-03  2.3057070748313505e-03  2.5324188725160263e-03  2.7510294874554210e-03  2.9558920774049226e-03  3.1441536443890389e-03  3.3279317917471766e-03  3.4338032538624055e-03  3.5337215398839566e-03  3.5977866818351174e-03  3.6253436547982300e-03  3.6163718267477234e-03  3.5720817641205437e-03  3.4947957032838359e-03  3.3877675103362284e-03  3.2549611159841240e-03  3.1008088982028806e-03  2.9299705900524297e-03  2.7471102283211364e-03  2.5567042155918277e-03  2.3628885778874168e-03  2.1693486917592230e-03  1.9792506588064565e-03  1.7952104211199620e-03  1.6192947241310573e-03  1.4530470665513229e-03  1.2975316507353571e-03  1.1533888357732030e-03  1.0208964741583377e-03  9.0003258372187676e-04  7.9053591557427295e-04  6.9196835663869031e-04  8.5962489501636551e-04  -5.1726090703661559e-04  1.8177911249118398e-05  3.8541685328164399e-05  6.6934926770722563e-05  1.0343190774803136e-04  1.4956487973000218e-04  2.0700868704972929e-04  2.7755198999886832e-04  3.6305212442045256e-04  4.6537087426348913e-04  5.8628910830354119e-04  7.2739944322272436e-04  8.8997793129063382e-04  1.0748382609659228e-03  1.2821750320534068e-03  1.5114061128105210e-03  1.7610275244796842e-03  2.0284971766640235e-03  2.3101654100262255e-03  2.6012699697273343e-03  2.8960101281476401e-03  3.1877088978949360e-03  3.4690638138175898e-03  3.7324764098093377e-03  3.9704174361065636e-03  4.3345027458084415e-03  4.4029478907307547e-03  4.4747675443907575e-03  4.5435491800575436e-03  4.5723713755445958e-03  4.5532248245618795e-03  4.4880017039592443e-03  4.3800934795229620e-03  4.2341210939977336e-03  4.0556110451754161e-03  3.8506497080739066e-03  3.6255459290343208e-03  3.3865264396859040e-03  3.1394813547787588e-03  2.8897692743546236e-03  2.6420844071740296e-03  2.4003823970618005e-03  2.1678575058302996e-03  1.9469614952864177e-03  1.7394537366589669e-03  1.5464724154283732e-03  1.3686178164496695e-03  1.2060402217134920e-03  1.0585266497523717e-03  9.2558230826847194e-04  8.0476459941657109e-04  1.2211963672081245e-03  -5.1671397536290570e-04  2.1432834758984119e-05  4.5233146771799201e-05  7.8905980476936123e-05  1.2244599010256552e-04  1.7780081586248799e-04  2.4712223535112857e-04  3.3273522268388448e-04  4.3708566652891570e-04  5.6266248164663893e-04  7.1189051675888185e-04  8.8699207685769390e-04  1.0898172137641213e-03  1.3216462998261399e-03  1.5829727587162879e-03  1.8732789527325354e-03  2.1908236183529909e-03  2.5324641036889705e-03  2.8935399325315356e-03  3.2678447050653895e-03  3.6477099503765859e-03  4.0242165959460301e-03  4.3875372990596446e-03  4.7273970896445456e-03  5.0335891751339601e-03  5.4525650133117358e-03  5.5827584109129063e-03  5.6626401075824560e-03  5.7547148281251988e-03  5.7830258534129157e-03  5.7481561436544711e-03  5.6530370976126650e-03  5.5026262274644284e-03  5.3035010959111119e-03  5.0633839990667532e-03  4.7906463089429250e-03  4.4938362602295603e-03  4.1812643062791657e-03  3.8606682909778536e-03  3.5389687380272031e-03  3.2221141735557525e-03  2.9150085235055937e-03  2.6215075731993265e-03  2.3444690572705846e-03  2.0858406735350687e-03  1.8467715678908627e-03  1.6277350115832716e-03  1.4286525722865030e-03  1.2490126809939529e-03  1.0879788644649539e-03  9.4274475864284518e-04  1.3374194311066988e-03  -5.1658400874598077e-04  2.4660159017266597e-05  5.2935770836042194e-05  9.2759112618075263e-05  1.4456613941531404e-04  2.1082610787082984e-04  2.9429710044792380e-04  3.9799490706748995e-04  5.2513440875500848e-04  6.7903695604616449e-04  8.6299775838399482e-04  1.0801088385559842e-03  1.3330359700459090e-03  1.6237524509502544e-03  1.9532386575430096e-03  2.3211638584983859e-03  2.7255751396137798e-03  3.1626263696264332e-03  3.6263863133794436e-03  4.1087673104463077e-03  4.5996124353692150e-03  5.0869683315943187e-03  5.5575527187215730e-03  5.9974013491396342e-03  6.3926033118550073e-03  6.8862095302809120e-03  7.0736853541942292e-03  7.1915227137571971e-03  7.3007578669123611e-03  7.3252484751939089e-03  7.2662805210414894e-03  7.1283711626708929e-03  6.9187794395524143e-03  6.6468923644397299e-03  6.3235249292607930e-03  5.9602081684830260e-03  5.5685289485796494e-03  5.1595683115061783e-03  4.7434659372146797e-03  4.3291200095480270e-03  3.9240168083149356e-03  3.5341738456167110e-03  3.1641744208401206e-03  2.8172694773534361e-03  2.4955236288498857e-03  2.1999851282635667e-03  1.9308634329485946e-03  1.6877021418952747e-03  1.4695389438922190e-03  1.2750475312898776e-03  1.1009181633571217e-03  1.4710231867301748e-03  -5.1643394973786144e-04  2.8335918535338714e-05  6.1759367509660375e-05  1.0871448404945700e-04  1.7018241262123612e-04  2.4928458093001737e-04  3.4954678066287885e-04  4.7487143749149710e-04  6.2947496854226948e-04  8.1778052591750252e-04  1.0442565529791708e-03  1.3131930407773566e-03  1.6284106941390080e-03  1.9929038922586015e-03  2.4084266672897447e-03  2.8750418549067631e-03  3.3906664078709246e-03  3.9506591015087238e-03  4.5475080851330616e-03  5.1706817762776532e-03  5.8067040264549912e-03  6.4395004904178313e-03  7.0510366213705983e-03  7.6222304027713855e-03  8.1340102608043544e-03  8.7246850681027156e-03  8.9856224835594117e-03  9.1505989679525144e-03  9.2787535769583897e-03  9.2938501576060352e-03  9.1983625373672443e-03  8.9992309193584440e-03  8.7071092220486826e-03  8.3354323462075178e-03  7.8993816103418435e-03  7.4148609369831617e-03  6.8975758745382157e-03  6.3622784292118638e-03  5.8222096423203766e-03  5.2887441754446065e-03  4.7712200629530070e-03  4.2769233813563382e-03  3.8111913821766573e-03  3.3775971917254441e-03  2.9781826877943339e-03  2.6137118862684461e-03  2.2839237014260303e-03  1.9877692875373983e-03  1.7236247272109659e-03  1.4894743251983073e-03  1.2813213377578434e-03  1.6226731243894608e-03  -5.1626199867884259e-04  3.2499989946347025e-05  7.1813305326815140e-05  1.2699561292298163e-04  1.9969804563034217e-04  2.9385341243361055e-04  4.1395514864288053e-04  5.6503889811006897e-04  7.5262057351808108e-04  9.8257674083544028e-04  1.2609524828577263e-03  1.5936828798722821e-03  1.9862177584854044e-03  2.4430463013246501e-03  2.9671292241550394e-03  3.5592617906807459e-03  4.2174103551235430e-03  4.9360865053653643e-03  5.7058427326377326e-03  6.5129868361579564e-03  7.3396130340920877e-03  8.1640305173193289e-03  8.9616319435449881e-03  9.7061867196629147e-03  1.0371377096505216e-02  1.1088843163552275e-02  1.1444252485512483e-02  1.1667632768890398e-02  1.1815677078665722e-02  1.1812266842211185e-02  1.1661852609131235e-02  1.1375086667209171e-02  1.0967651566801830e-02  1.0458835491837848e-02  9.8699979933881531e-03  9.2230970935815986e-03  8.5394096940632682e-03  7.8385272727413656e-03  7.1376592453508587e-03  6.4512351225237867e-03  5.7907677492602975e-03  5.1649240037611611e-03  4.5797445025202877e-03  4.0389570988318179e-03  3.5443370974433926e-03  3.0960774176184416e-03  2.6931424239914118e-03  2.3335885590171608e-03  2.0148426287164472e-03  1.7339344453244224e-03  1.4859417985887942e-03  1.7938382760293355e-03  -5.1606664617285852e-04  3.7189498936476430e-05  8.3202197722735639e-05  1.4782158148438004e-04  2.3351725513618974e-04  3.4522582702486011e-04  4.8865398521121591e-04  6.7027873839741738e-04  8.9729465283584352e-04  1.1774878762077026e-03  1.5190145497896237e-03  1.9300609917771118e-03  2.4183661103595426e-03  2.9905944154411503e-03  3.6515622530676906e-03  4.4033415144480162e-03  5.2442939454633818e-03  6.1681232040141963e-03  7.1630661630163010e-03  8.2113718090059858e-03  9.2892252788178854e-03  1.0367255686729084e-02  1.1411712238583119e-02  1.2386303967771991e-02  1.3254450765212356e-02  1.4138326740845031e-02  1.4615600693281586e-02  1.4911090697928175e-02  1.5078349627763193e-02  1.5041805928503817e-02  1.4809171484854692e-02  1.4396806906610349e-02  1.3827878260228748e-02  1.3130169044329065e-02  1.2333797911993632e-02  1.1469101415899864e-02  1.0564867836795777e-02  9.6470230734195528e-03  8.7377911785942817e-03  7.8552920369159458e-03  7.0135011618578337e-03  6.2224802146165943e-03  5.4887869095627774e-03  4.8159837095310045e-03  4.2051808345816228e-03  3.6555665549529242e-03  3.1648938766822904e-03  2.7299061674061933e-03  2.3466945457632400e-03  2.0109870969004791e-03  1.7166306015770384e-03  1.9858469576698266e-03  -5.1584684267557443e-04  4.2436651880921345e-05  9.6020436912279473e-05  1.7139684878448501e-04  2.7202867858826653e-04  4.0408647408152979e-04  5.7478897492568241e-04  7.9243619610608297e-04  1.0663799103545341e-03  1.4069033227232335e-03  1.8249770058301981e-03  2.3318555250459671e-03  2.9384805793715610e-03  3.6546644146290704e-03  4.4880445193472701e-03  5.4428296658376877e-03  6.5183993286138031e-03  7.7078716994304908e-03  8.9968137844170237e-03  1.0362318686608923e-02  1.1772703134711064e-02  1.3188063164471280e-02  1.4561851638436280e-02  1.5843503724927578e-02  1.6981766276270380e-02  1.8085237541506493e-02  1.8720249291947037e-02  1.9104326333457423e-02  1.9287020499521180e-02  1.9194129155662976e-02  1.8838724343106857e-02  1.8245987576769793e-02  1.7450279081746907e-02  1.6491758111484019e-02  1.5412979800504947e-02  1.4255859580800804e-02  1.3059260665321291e-02  1.1857316430574194e-02  1.0678477662294074e-02  9.5451901018024053e-03  8.4740629533573263e-03  7.4763776469225713e-03  6.5587979811564780e-03  5.7241674517901544e-03  4.9723087474141583e-03  4.3007684269280744e-03  3.7054735688136068e-03  3.1812855187993276e-03  2.7224488252124966e-03  2.3229417773479306e-03  1.9749942738829908e-03  2.1998004359757195e-03  -5.1560219639708044e-04  4.8266141692608610e-05  1.1034548381098902e-04  1.9789838276699506e-04  3.1558376772691441e-04  4.7107806030858917e-04  6.7347144181258503e-04  9.3335461871565213e-04  1.2628347185597842e-03  1.6754419200532039e-03  2.1858796557469328e-03  2.8095642298259478e-03  3.5618971864995676e-03  4.4572195842883626e-03  5.5074162723779798e-03  6.7201753872820139e-03  8.0969674303617446e-03  9.6308896251179540e-03  1.1304618104844920e-02  1.3088806238908277e-02  1.4941334380891434e-02  1.6807818937408164e-02  1.8623693014464999e-02  2.0317960364680858e-02  2.1818165645659186e-02  2.3213211177259760e-02  2.4053175561250466e-02  2.4545289185493063e-02  2.4734071788443432e-02  2.4548214837648227e-02  2.4009598899988271e-02  2.3157117422143512e-02  2.2041968396831212e-02  2.0722404319488321e-02  1.9258650967522706e-02  1.7708578331738022e-02  1.6124458637669373e-02  1.4550906618338135e-02  1.3023912413203323e-02  1.1570765208564411e-02  1.0210621080008801e-02  8.9554743171538984e-03  7.8113276058083565e-03  6.7794053466826128e-03  5.8573037981112996e-03  5.0400145751690701e-03  4.3207913825743811e-03  3.6918534830597594e-03  3.1449345576227408e-03  2.6716941273591029e-03  2.2622655194571039e-03  2.4364720175864951e-03  -5.1533319353696508e-04  5.4692155299094179e-05  1.2622993199734296e-04  2.2746002534018594e-04  3.6446974603486265e-04  5.4675817209135836e-04  7.8571343920002775e-04  1.0947829297987945e-03  1.4895681152294765e-03  1.9877932720291963e-03  2.6090824163759684e-03  3.3744645439874317e-03  4.3055171518361487e-03  5.4230575978518481e-03  6.7453088517125939e-03  8.2855099625853829e-03  1.0049021260166852e-02  1.2030095097065820e-02  1.4208640245344160e-02  1.6547480582306894e-02  1.8990753256403873e-02  2.1464144633778451e-02  2.3877554251587534e-02  2.6130460528361724e-02  2.8119409322178737e-02  2.9904355267839824e-02  3.1011767907667961e-02  3.1634212698098643e-02  3.1810020855997281e-02  3.1473565678068569e-02  3.0661246118154087e-02  2.9433420202010344e-02  2.7866761538839786e-02  2.6046059954901977e-02  2.4056638059705943e-02  2.1978236278274724e-02  1.9880768098836848e-02  1.7821954014966751e-02  1.5846573406789684e-02  1.3986939453096007e-02  1.2264178210152524e-02  1.0689940353775495e-02  9.2682557166707865e-03  7.9973292037607713e-03  6.8711555338436866e-03  5.8808922604655376e-03  5.0159744932811272e-03  4.2649828251104518e-03  3.6162916387573727e-03  3.0585317928203677e-03  2.5791540740875384e-03  2.6961933074064891e-03  -5.1504143001497712e-04  6.1715055629370862e-05  1.4369248279622919e-04  2.6015422985898202e-04  4.1887710283145083e-04  6.3154572801537158e-04  9.1234440126641944e-04  1.2782519804896543e-03  1.7492646445152105e-03  2.3484816586141028e-03  3.1019656385486761e-03  4.0382631909153203e-03  5.1874483332568291e-03  6.5795371732869897e-03  8.2421295741077968e-03  1.0197177923704542e-02  1.2456883266524150e-02  1.5018891135176078e-02  1.7861207561042841e-02  2.0937557929265917e-02  2.4174204797723080e-02  2.7469416095004823e-02  3.0696692864090214e-02  3.3712406994164376e-02  3.6367184839404966e-02  3.8677807493262384e-02  4.0135926897163790e-02  4.0912999152395269e-02  4.1040046252340853e-02  4.0462193361574077e-02  3.9239906188900851e-02  3.7467413952702491e-02  3.5260168553778365e-02  3.2741979997787482e-02  3.0033735698332967e-02  2.7244902952546248e-02  2.4468205817070581e-02  2.1777240077467504e-02  1.9226423826373146e-02  1.6852555803268259e-02  1.4677297564579004e-02  1.2710029383618185e-02  1.0950690646521283e-02  9.3923642694349468e-03  8.0234830197001717e-03  6.8296195239867007e-03  5.7948749296893596e-03  4.9029104848353948e-03  4.1376788345871239e-03  3.4839136601844873e-03  2.9256813587138016e-03  2.9787311058662460e-03  -5.1472983819198610e-04  6.9317868067546014e-05  1.6270812611277462e-04  2.9597162816929671e-04  4.7886214714363748e-04  7.2565735479124943e-04  1.0539087467195903e-03  1.4849169424474323e-03  2.0441515628186998e-03  2.7615364076549829e-03  3.6714851304071655e-03  4.8125302791794215e-03  6.2263433801194295e-03  7.9559045158257586e-03  1.0042562648818004e-02  1.2521757924199656e-02  1.5417288411709350e-02  1.8734233863620706e-02  2.2451025144216413e-02  2.6511660800941979e-02  3.0819641892730797e-02  3.5235643867016955e-02  3.9581000277941251e-02  4.3648456803771399e-02  4.7219615957910140e-02  5.0245784775899915e-02  5.2166357515919380e-02  5.3122042633797530e-02  5.3135894320629595e-02  5.2173033066960098e-02  5.0334151545120977e-02  4.7767411048308790e-02  4.4647644435285828e-02  4.1156109735995566e-02  3.7463842776137728e-02  3.3720173568802671e-02  3.0046548999113017e-02  2.6534848272224475e-02  2.3248943178082612e-02  2.0228227116773856e-02  1.7492045162159551e-02  1.5044254236840833e-02  1.2877431010682257e-02  1.0976478138546198e-02  9.3215443716657600e-03  7.8902774423786869e-03  6.6594844810241782e-03  5.6062978592718894e-03  4.7089471689925758e-03  3.9472296861463481e-03  3.3010054301850504e-03  3.2831604795040621e-03  -5.1440288607398888e-04  7.7462767787758215e-05  1.8319801455591870e-04  3.3479929540279640e-04  5.4430590261573706e-04  8.2903524705077968e-04  1.2105457674630655e-03  1.7153656062047012e-03  2.3757042407705001e-03  3.2300557587706916e-03  4.3235519599373910e-03  5.7078581331953815e-03  7.4403263155944834e-03  9.5820386586357061e-03  1.2194306796143951e-02  1.5333177871899809e-02  1.9041590803213108e-02  2.3339102694687766e-02  2.8209642368436746e-02  3.3588583649588874e-02  3.9351492987221681e-02  4.5307928055315076e-02  5.1204146887051077e-02  5.6737898847587988e-02  6.1585325404662786e-02  6.5596523162992679e-02  6.8130828454693551e-02  6.9283549800176217e-02  6.9070598969929314e-02  6.7494088640233540e-02  6.4722679258295945e-02  6.0991258184616086e-02  5.6566089306474658e-02  5.1712940284461016e-02  4.6672902934056612e-02  4.1647621049474969e-02  3.6793211574373048e-02  3.2220827741197076e-02  2.8001459819005012e-02  2.4172847583821388e-02  2.0746931134698908e-02  1.7716844306966097e-02  1.5062930621310831e-02  1.2757597540818830e-02  1.0769032050241236e-02  9.0639095862311177e-03  7.6092713167490358e-03  6.3737481483231067e-03  5.3282925282360314e-03  4.4465532655220755e-03  3.7032460458456904e-03  3.6077418298339626e-03  -5.1406672095608377e-04  8.6087835298455761e-05  2.0501973569837892e-04  3.7639907015272177e-04  6.1487158222711289e-04  9.4126978016761389e-04  1.3818559638911704e-03  1.9693967996386795e-03  2.7442917340354612e-03  3.7556589332324508e-03  5.0622148073792101e-03  6.7326886657065113e-03  8.8453900282796025e-03  1.1486397004717324e-02  1.4745678997813202e-02  1.8710350824841054e-02  2.3454262712632158e-02  2.9023395141294695e-02  3.5417222579139748e-02  4.2567495045569885e-02  5.0317779115641670e-02  5.8409275110129805e-02  6.6480023766074703e-02  7.4084273954111407e-02  8.0734072906324700e-02  8.6119576957263466e-02  8.9474486064721331e-02  9.0826007891401619e-02  9.0187583875520463e-02  8.7630014983584789e-02  8.3438335850672132e-02  7.7988368993726034e-02  7.1687769071624052e-02  6.4926087206389579e-02  5.8040694645375833e-02  5.1299512777340711e-02  4.4897570328229282e-02  3.8962860305881669e-02  3.3567145618985328e-02  2.8738384664703100e-02  2.4472645808802755e-02  2.0744393454356014e-02  1.7514741793591502e-02  1.4737703631472197e-02  1.2364680428049472e-02  1.0347519909216023e-02  8.6404684047521000e-03  7.2013070738854382e-03  5.9919092037074200e-03  4.9784033996615167e-03  4.1293231947615453e-03  3.9498120968268395e-03  -5.1372922551968614e-04  9.5104414729988500e-05  2.2795890779915920e-04  4.2038781718714183e-04  6.8996398491064765e-04  1.0615222459025373e-03  1.5667617180553444e-03  2.2457793561144134e-03  3.1487741851410453e-03  4.3378350603638424e-03  5.8886405023505150e-03  7.8917716756718367e-03  1.0453157089114937e-02  1.3692923256275795e-02  1.7741628120194839e-02  2.2732547055086250e-02  2.8788472766363784e-02  3.6001589336552405e-02  4.4405720213956050e-02  5.3942048981094330e-02  6.4422589595065818e-02  7.5500044890874793e-02  8.6656939747745063e-02  9.7228292991692333e-02  1.0646561163931657e-01  1.1379975165238593e-01  1.1826154907034379e-01  1.1977414873416001e-01  1.1836247669733474e-01  1.1422628957923288e-01  1.0785304561523476e-01  9.9850065465554874e-02  9.0844085073680234e-02  8.1404117234417400e-02  7.1996157145598455e-02  6.2967138071324522e-02  5.4549857738276329e-02  4.6879724908291558e-02  4.0015977590172912e-02  3.3962601897291299e-02  2.8686453811922030e-02  2.4131680605192492e-02  2.0230477457472813e-02  1.6910668505530201e-02  1.4100751213411745e-02  1.1733028267293756e-02  9.7453631367678609e-03  8.0819862414433785e-03  6.6936745602241650e-03  5.5375393206296307e-03  4.5748257947744826e-03  4.3057022590995472e-03  -5.1339995342504908e-04  1.0439546139545807e-04  2.5172321509932998e-04  4.6622202193189317e-04  7.6869528937481145e-04  1.1884554050709888e-03  1.7633746376038589e-03  2.5420100539085572e-03  3.5860772898606867e-03  4.9732192474311390e-03  6.7999202807466708e-03  9.1842584740369250e-03  1.2267941460810642e-02  1.6216706039230280e-02  2.1217658945212044e-02  2.7471511336180181e-02  3.5177015248466968e-02  4.4504519633564735e-02  5.5555976503264472e-02  6.8310832780915681e-02  8.2562107708299970e-02  9.7855138883964091e-02  1.1345159252992551e-01  1.2834832304543564e-01  1.4137387204819812e-01  1.5152596513671257e-01  1.5749653120358287e-01  1.5904615739442199e-01  1.5624718506160640e-01  1.4954582096826738e-01  1.3978809152114224e-01  1.2796542829433227e-01  1.1504317767786125e-01  1.0184522730218783e-01  8.9000942726228660e-02  7.6940965880607004e-02  6.5922242974744194e-02  5.6065239358165563e-02  4.7392047696189092e-02  3.9859509737251657e-02  3.3385262300716478e-02  2.7866776022267802e-02  2.3194433478595448e-02  1.9259968610014964e-02  1.5961512548371946e-02  1.3206276075351591e-02  1.0911658946744927e-02  9.0053617189957656e-03  7.4249030395717210e-03  6.1