<?xml version="1.0"?>
<VTKFile type="UnstructuredGrid"  version="0.1"  >
<UnstructuredGrid>
<Piece  NumberOfPoints="5305" NumberOfCells="10404">
<Points>
<DataArray  type="Float64"  NumberOfComponents="3"  format="ascii">0 0 0  0.196078431372549 0 0  0.392156862745098 0 0  0.5882352941176471 0 0  0.7843137254901961 0 0  0.9803921568627451 0 0  1.176470588235294 0 0  1.372549019607843 0 0  1.568627450980392 0 0  1.764705882352941 0 0  1.96078431372549 0 0  2.156862745098039 0 0  2.352941176470588 0 0  2.549019607843137 0 0  2.745098039215686 0 0  2.941176470588236 0 0  3.137254901960784 0 0  3.333333333333333 0 0  3.529411764705882 0 0  3.725490196078431 0 0  3.92156862745098 0 0  4.117647058823529 0 0  4.313725490196078 0 0  4.509803921568627 0 0  4.705882352941177 0 0  4.901960784313726 0 0  5.098039215686274 0 0  5.294117647058823 0 0  5.490196078431373 0 0  5.686274509803922 0 0  5.882352941176471 0 0  6.078431372549019 0 0  6.274509803921569 0 0  6.470588235294118 0 0  6.666666666666667 0 0  6.862745098039215 0 0  7.058823529411764 0 0  7.254901960784314 0 0  7.450980392156863 0 0  7.647058823529412 0 0  7.84313725490196 0 0  8.03921568627451 0 0  8.235294117647058 0 0  8.431372549019608 0 0  8.627450980392156 0 0  8.823529411764707 0 0  9.019607843137255 0 0  9.215686274509803 0 0  9.411764705882353 0 0  9.607843137254902 0 0  9.803921568627452 0 0  10 0 0  0 0.196078431372549 0  0.196078431372549 0.196078431372549 0  0.392156862745098 0.196078431372549 0  0.5882352941176471 0.196078431372549 0  0.7843137254901961 0.196078431372549 0  0.9803921568627451 0.196078431372549 0  1.176470588235294 0.196078431372549 0  1.372549019607843 0.196078431372549 0  1.568627450980392 0.196078431372549 0  1.764705882352941 0.196078431372549 0  1.96078431372549 0.196078431372549 0  2.156862745098039 0.196078431372549 0  2.352941176470588 0.196078431372549 0  2.549019607843137 0.196078431372549 0  2.745098039215686 0.196078431372549 0  2.941176470588236 0.196078431372549 0  3.137254901960784 0.196078431372549 0  3.333333333333333 0.196078431372549 0  3.529411764705882 0.196078431372549 0  3.725490196078431 0.196078431372549 0  3.92156862745098 0.196078431372549 0  4.117647058823529 0.196078431372549 0  4.313725490196078 0.196078431372549 0  4.509803921568627 0.196078431372549 0  4.705882352941177 0.196078431372549 0  4.901960784313726 0.196078431372549 0  5.098039215686274 0.196078431372549 0  5.294117647058823 0.196078431372549 0  5.490196078431373 0.196078431372549 0  5.686274509803922 0.196078431372549 0  5.882352941176471 0.196078431372549 0  6.078431372549019 0.196078431372549 0  6.274509803921569 0.196078431372549 0  6.470588235294118 0.196078431372549 0  6.666666666666667 0.196078431372549 0  6.862745098039215 0.196078431372549 0  7.058823529411764 0.196078431372549 0  7.254901960784314 0.196078431372549 0  7.450980392156863 0.196078431372549 0  7.647058823529412 0.196078431372549 0  7.84313725490196 0.196078431372549 0  8.03921568627451 0.196078431372549 0  8.235294117647058 0.196078431372549 0  8.431372549019608 0.196078431372549 0  8.627450980392156 0.196078431372549 0  8.823529411764707 0.196078431372549 0  9.019607843137255 0.196078431372549 0  9.215686274509803 0.196078431372549 0  9.411764705882353 0.196078431372549 0  9.607843137254902 0.196078431372549 0  9.803921568627452 0.196078431372549 0  10 0.196078431372549 0  0 0.392156862745098 0  0.196078431372549 0.392156862745098 0  0.392156862745098 0.392156862745098 0  0.5882352941176471 0.392156862745098 0  0.7843137254901961 0.392156862745098 0  0.9803921568627451 0.392156862745098 0  1.176470588235294 0.392156862745098 0  1.372549019607843 0.392156862745098 0  1.568627450980392 0.392156862745098 0  1.764705882352941 0.392156862745098 0  1.96078431372549 0.392156862745098 0  2.156862745098039 0.392156862745098 0  2.352941176470588 0.392156862745098 0  2.549019607843137 0.392156862745098 0  2.745098039215686 0.392156862745098 0  2.941176470588236 0.392156862745098 0  3.137254901960784 0.392156862745098 0  3.333333333333333 0.392156862745098 0  3.529411764705882 0.392156862745098 0  3.725490196078431 0.392156862745098 0  3.92156862745098 0.392156862745098 0  4.117647058823529 0.392156862745098 0  4.313725490196078 0.392156862745098 0  4.509803921568627 0.392156862745098 0  4.705882352941177 0.392156862745098 0  4.901960784313726 0.392156862745098 0  5.098039215686274 0.392156862745098 0  5.294117647058823 0.392156862745098 0  5.490196078431373 0.392156862745098 0  5.686274509803922 0.392156862745098 0  5.882352941176471 0.392156862745098 0  6.078431372549019 0.392156862745098 0  6.274509803921569 0.392156862745098 0  6.470588235294118 0.392156862745098 0  6.666666666666667 0.392156862745098 0  6.862745098039215 0.392156862745098 0  7.058823529411764 0.392156862745098 0  7.254901960784314 0.392156862745098 0  7.450980392156863 0.392156862745098 0  7.647058823529412 0.392156862745098 0  7.84313725490196 0.392156862745098 0  8.03921568627451 0.392156862745098 0  8.235294117647058 0.392156862745098 0  8.431372549019608 0.392156862745098 0  8.627450980392156 0.392156862745098 0  8.823529411764707 0.392156862745098 0  9.019607843137255 0.392156862745098 0  9.215686274509803 0.392156862745098 0  9.411764705882353 0.392156862745098 0  9.607843137254902 0.392156862745098 0  9.803921568627452 0.392156862745098 0  10 0.392156862745098 0  0 0.5882352941176471 0  0.196078431372549 0.5882352941176471 0  0.392156862745098 0.5882352941176471 0  0.5882352941176471 0.5882352941176471 0  0.7843137254901961 0.5882352941176471 0  0.9803921568627451 0.5882352941176471 0  1.176470588235294 0.5882352941176471 0  1.372549019607843 0.5882352941176471 0  1.568627450980392 0.5882352941176471 0  1.764705882352941 0.5882352941176471 0  1.96078431372549 0.5882352941176471 0  2.156862745098039 0.5882352941176471 0  2.352941176470588 0.5882352941176471 0  2.549019607843137 0.5882352941176471 0  2.745098039215686 0.5882352941176471 0  2.941176470588236 0.5882352941176471 0  3.137254901960784 0.5882352941176471 0  3.333333333333333 0.5882352941176471 0  3.529411764705882 0.5882352941176471 0  3.725490196078431 0.5882352941176471 0  3.92156862745098 0.5882352941176471 0  4.117647058823529 0.5882352941176471 0  4.313725490196078 0.5882352941176471 0  4.509803921568627 0.5882352941176471 0  4.705882352941177 0.5882352941176471 0  4.901960784313726 0.5882352941176471 0  5.098039215686274 0.5882352941176471 0  5.294117647058823 0.5882352941176471 0  5.490196078431373 0.5882352941176471 0  5.686274509803922 0.5882352941176471 0  5.882352941176471 0.5882352941176471 0  6.078431372549019 0.5882352941176471 0  6.274509803921569 0.5882352941176471 0  6.470588235294118 0.5882352941176471 0  6.666666666666667 0.5882352941176471 0  6.862745098039215 0.5882352941176471 0  7.058823529411764 0.5882352941176471 0  7.254901960784314 0.5882352941176471 0  7.450980392156863 0.5882352941176471 0  7.647058823529412 0.5882352941176471 0  7.84313725490196 0.5882352941176471 0  8.03921568627451 0.5882352941176471 0  8.235294117647058 0.5882352941176471 0  8.431372549019608 0.5882352941176471 0  8.627450980392156 0.5882352941176471 0  8.823529411764707 0.5882352941176471 0  9.019607843137255 0.5882352941176471 0  9.215686274509803 0.5882352941176471 0  9.411764705882353 0.5882352941176471 0  9.607843137254902 0.5882352941176471 0  9.803921568627452 0.5882352941176471 0  10 0.5882352941176471 0  0 0.7843137254901961 0  0.196078431372549 0.7843137254901961 0  0.392156862745098 0.7843137254901961 0  0.5882352941176471 0.7843137254901961 0  0.7843137254901961 0.7843137254901961 0  0.9803921568627451 0.7843137254901961 0  1.176470588235294 0.7843137254901961 0  1.372549019607843 0.7843137254901961 0  1.568627450980392 0.7843137254901961 0  1.764705882352941 0.7843137254901961 0  1.96078431372549 0.7843137254901961 0  2.156862745098039 0.7843137254901961 0  2.352941176470588 0.7843137254901961 0  2.549019607843137 0.7843137254901961 0  2.745098039215686 0.7843137254901961 0  2.941176470588236 0.7843137254901961 0  3.137254901960784 0.7843137254901961 0  3.333333333333333 0.7843137254901961 0  3.529411764705882 0.7843137254901961 0  3.725490196078431 0.7843137254901961 0  3.92156862745098 0.7843137254901961 0  4.117647058823529 0.7843137254901961 0  4.313725490196078 0.7843137254901961 0  4.509803921568627 0.7843137254901961 0  4.705882352941177 0.7843137254901961 0  4.901960784313726 0.7843137254901961 0  5.098039215686274 0.7843137254901961 0  5.294117647058823 0.7843137254901961 0  5.490196078431373 0.7843137254901961 0  5.686274509803922 0.7843137254901961 0  5.882352941176471 0.7843137254901961 0  6.078431372549019 0.7843137254901961 0  6.274509803921569 0.7843137254901961 0  6.470588235294118 0.7843137254901961 0  6.666666666666667 0.7843137254901961 0  6.862745098039215 0.7843137254901961 0  7.058823529411764 0.7843137254901961 0  7.254901960784314 0.7843137254901961 0  7.450980392156863 0.7843137254901961 0  7.647058823529412 0.7843137254901961 0  7.84313725490196 0.7843137254901961 0  8.03921568627451 0.7843137254901961 0  8.235294117647058 0.7843137254901961 0  8.431372549019608 0.7843137254901961 0  8.627450980392156 0.7843137254901961 0  8.823529411764707 0.7843137254901961 0  9.019607843137255 0.7843137254901961 0  9.215686274509803 0.7843137254901961 0  9.411764705882353 0.7843137254901961 0  9.607843137254902 0.7843137254901961 0  9.803921568627452 0.7843137254901961 0  10 0.7843137254901961 0  0 0.9803921568627451 0  0.196078431372549 0.9803921568627451 0  0.392156862745098 0.9803921568627451 0  0.5882352941176471 0.9803921568627451 0  0.7843137254901961 0.9803921568627451 0  0.9803921568627451 0.9803921568627451 0  1.176470588235294 0.9803921568627451 0  1.372549019607843 0.9803921568627451 0  1.568627450980392 0.9803921568627451 0  1.764705882352941 0.9803921568627451 0  1.96078431372549 0.9803921568627451 0  2.156862745098039 0.9803921568627451 0  2.352941176470588 0.9803921568627451 0  2.549019607843137 0.9
[...]
<PointData  Scalars="f_19"> 
<DataArray  type="Float64"  Name="f_19"  format="ascii">9.9999895800811134e-01  9.9999853049939191e-01  9.9999797443442917e-01  9.9999725857058741e-01  9.9999634641554558e-01  9.9999519622438859e-01  9.9999376140014462e-01  9.9999199144553730e-01  9.9998983362043281e-01  9.9998723544732482e-01  9.9998414816789982e-01  9.9998053117940588e-01  9.9997635736523982e-01  9.9997161908036702e-01  9.9996633436829407e-01  9.9996055279293428e-01  9.9995436009874139e-01  9.9994788080879249e-01  9.9994127787964315e-01  9.9993474869339616e-01  9.9992851700075580e-01  9.9992282091969842e-01  9.9991789768697437e-01  9.9991396645854336e-01  9.9991121093978963e-01  1.0665255910534310e+00  9.9990969538230401e-01  9.9991100663042132e-01  9.9991362982231879e-01  9.9991743438611969e-01  9.9992223857768892e-01  9.9992782492136445e-01  9.9993395752983616e-01  9.9994039927313993e-01  9.9994692701672339e-01  9.9995334363167010e-01  9.9995948607759111e-01  9.9996522945015187e-01  9.9997048737534133e-01  9.9997520946570861e-01  9.9997937671563020e-01  9.9998299572240457e-01  9.9998609251708126e-01  9.9998870661988448e-01  9.9999088574258921e-01  9.9999268137705932e-01  9.9999414535598008e-01  9.9999532735788410e-01  9.9999627325451168e-01  9.9999702415930825e-01  9.9999761602371151e-01  9.9999895977328923e-01  9.9999850573102522e-01  9.9999792225419204e-01  9.9999716046481057e-01  9.9999617539011310e-01  9.9999491392535900e-01  9.9999331460519736e-01  9.9999130793524638e-01  9.9998881751978763e-01  9.9998576224378866e-01  9.9998205976331811e-01  9.9997763151322439e-01  9.9997240933965648e-01  9.9996634369571180e-01  9.9995941309702752e-01  9.9995163423035927e-01  9.9994307177128983e-01  9.9993384664929452e-01  9.9992414127263995e-01  9.9991420017721133e-01  9.9990432477159341e-01  9.9989486136409922e-01  9.9988618246707506e-01  9.9987866239444179e-01  9.9987264923652752e-01  9.9986843619348131e-01  1.0664441956171473e+00  9.9986616010933305e-01  9.9986821062480025e-01  9.9987227774577470e-01  9.9987815148606296e-01  9.9988554089587967e-01  9.9989409980854527e-01  9.9990345544738168e-01  9.9991323641344754e-01  9.9992309707434401e-01  9.9993273626962209e-01  9.9994190931451921e-01  9.9995043330274835e-01  9.9995818651762647e-01  9.9996510327372912e-01  9.9997116571968792e-01  9.9997639408507599e-01  9.9998083662965320e-01  9.9998456023653592e-01  9.9998764225514369e-01  9.9999016389700945e-01  9.9999220524686105e-01  9.9999384178259632e-01  9.9999514219674779e-01  9.9999616726692475e-01  9.9999696951848471e-01  9.9999850773402532e-01  9.9999792185664538e-01  9.9999713238201049e-01  9.9999609699254999e-01  9.9999475130532445e-01  9.9999301845002786e-01  9.9999080838920851e-01  9.9998801799660941e-01  9.9998453226376660e-01  9.9998022705812173e-01  9.9997497387375045e-01  9.9996864697362897e-01  9.9996113319256874e-01  9.9995234442704650e-01  9.9994223246686864e-01  9.9993080532962642e-01  9.9991814368036414e-01  9.9990441533551455e-01  9.9988988538445855e-01  9.9987491926743588e-01  9.9985997638030411e-01  9.9984559254683725e-01  9.9983235102390933e-01  9.9982084346024480e-01  9.9981162413830604e-01  9.9980516249557005e-01  1.0663361327628198e+00  9.9980171679164676e-01  9.9980491464155197e-01  9.9981121607844026e-01  9.9982028254175481e-01  9.9983164714635631e-01  9.9984475779797788e-01  9.9985902460015041e-01  9.9987386556411750e-01  9.9988874562872954e-01  9.9990320566174917e-01  9.9991688002029355e-01  9.9992950300100791e-01  9.9994090583332096e-01  9.9995100663834946e-01  9.9995979600775853e-01  9.9996732066308314e-01  9.9997366719172598e-01  9.9997894727412406e-01  9.9998328523969615e-01  9.9998680829657971e-01  9.9998963940994712e-01  9.9999189256145093e-01  9.9999366999288208e-01  9.9999506099500968e-01  9.9999614182025842e-01  9.9999792410888466e-01  9.9999717492114248e-01  9.9999611563281610e-01  9.9999471929340811e-01  9.9999289429283966e-01  9.9999053001788718e-01  9.9998749533587139e-01  9.9998363807041601e-01  9.9997878603937795e-01  9.9997275033529598e-01  9.9996533159545520e-01  9.9995632999144635e-01  9.9994555951799291e-01  9.9993286682741966e-01  9.9991815430006048e-01  9.9990140625259283e-01  9.9988271620843117e-01  9.9986231210299537e-01  9.9984057537156612e-01  9.9981804933999230e-01  9.9979543250711600e-01  9.9977355341821850e-01  9.9975332597076827e-01  9.9973568700445892e-01  9.9972152144468207e-01  9.9971158337598276e-01  1.0661895213870252e+00  9.9970633284657051e-01  9.9971131337070696e-01  9.9972107693992229e-01  9.9973507606265444e-01  9.9975255949514430e-01  9.9977264477829242e-01  9.9979439707645990e-01  9.9981690396709544e-01  9.9983933781178114e-01  9.9986100044425630e-01  9.9988134832434250e-01  9.9989999931323481e-01  9.9991672436409285e-01  9.9993142853011374e-01  9.9994412586030101e-01  9.9995491222655009e-01  9.9996393920246684e-01  9.9997139106535293e-01  9.9997746601730564e-01  9.9998236193507062e-01  9.9998626640369870e-01  9.9998935045656578e-01  9.9999176529463130e-01  9.9999364124060786e-01  9.9999508825021899e-01  9.9999717742703198e-01  9.9999622822505296e-01  9.9999481863330619e-01  9.9999295015691581e-01  9.9999049331704759e-01  9.9998728998642950e-01  9.9998315039835040e-01  9.9997785139537176e-01  9.9997113677810590e-01  9.9996272082561699e-01  9.9995229622354898e-01  9.9993954769009441e-01  9.9992417245004284e-01  9.9990590827877013e-01  9.9988456903377165e-01  9.9986008636219370e-01  9.9983255464972953e-01  9.9980227441551595e-01  9.9976978757352564e-01  9.9973589674307906e-01  9.9970166066206712e-01  9.9966835925552100e-01  9.9963742531736854e-01  9.9961034490343570e-01  9.9958853465704500e-01  9.9957321010369049e-01  1.0659868798923060e+00  9.9956516570907528e-01  9.9957292025885625e-01  9.9958805727595290e-01  9.9960968838667508e-01  9.9963660113123853e-01  9.9966738161133306e-01  9.9970054608446590e-01  9.9973466353637208e-01  9.9976845521084001e-01  9.9980086288883252e-01  9.9983108382595232e-01  9.9985857538989076e-01  9.9988303583781180e-01  9.9990436916801273e-01  9.9992264184939916e-01  9.9993803799527126e-01  9.9995081776646488e-01  9.9996128193168976e-01  9.9996974389340720e-01  9.9997650926143811e-01  9.9998186225443930e-01  9.9998605778228300e-01  9.9998931792304502e-01  9.9999183156227789e-01  9.9999375612638497e-01  9.9999623097887180e-01  9.9999503984045357e-01  9.9999317966934687e-01  9.9999069921846895e-01  9.9998741682611447e-01  9.9998310806352342e-01  9.9997750024154708e-01  9.9997026836361713e-01  9.9996103379385015e-01  9.9994936729152528e-01  9.9993479841002508e-01  9.9991683347312066e-01  9.9989498428756030e-01  9.9986880925886634e-01  9.9983796746950948e-01  9.9980228441800989e-01  9.9976182548092773e-01  9.9971696992911108e-01  9.9966847497489619e-01  9.9961751663852960e-01  9.9956569323822164e-01  9.9951497909402776e-01  9.9946762131378009e-01  9.9942598124205073e-01  9.9939233312632492e-01  9.9936864347642451e-01  1.0657024582804389e+00  9.9935626077753703e-01  9.9936833998028540e-01  9.9939183255115527e-01  9.9942529148373682e-01  9.9946675340619096e-01  9.9951394707739905e-01  9.9956451387802914e-01  9.9961620897346481e-01  9.9966705970722769e-01  9.9971546870247463e-01  9.9976026011114860e-01  9.9980067614823298e-01  9.9983633631278812e-01  9.9986717347371135e-01  9.9989336001024876e-01  9.9991523450974140e-01  9.9993323617462959e-01  9.9994785086585469e-01  9.9995957007895209e-01  9.9996886229322046e-01  9.9997615502993653e-01  9.9998182546540926e-01  9.9998619739142769e-01  9.9998954253028682e-01  9.9999208455776012e-01  9.9999504282252505e-01  9.9999356302371867e-01  9.9999112903142540e-01  9.9998786305309606e-01  9.9998351224448012e-01  9.9997776057371612e-01  9.9997021921278595e-01  9.9996041842970662e-01  9.9994780280347229e-01  9.9993173224545195e-01  9.9991149197992535e-01  9.9988631517433368e-01  9.9985542210234446e-01  9.9981807928000122e-01  9.9977368059864902e-01  9.9972184977101064e-01  9.9966255923634473e-01  9.9959625518143636e-01  9.9952397217486488e-01  9.9944741536319648e-01  9.9936898510868188e-01  9.9929172048630954e-01  9.9921914592314676e-01  9.9915501986826527e-01  9.9910300402014396e-01  9.9906629222093180e-01  1.0652983012699395e+00  9.9904715212631379e-01  9.9906598795249502e-01  9.9910250044739057e-01  9.9915432269082505e-01  9.9921826374583700e-01  9.9929066514589326e-01  9.9936777177901825e-01  9.9944606235102296e-01  9.9952250039343216e-01  9.9959468735958146e-01  9.9966091896827969e-01  9.9972016052960433e-01  9.9977196482479447e-01  9.9981635763176657e-01  9.9985371291090586e-01  9.9988463411848671e-01  9.9990985196324689e-01  9.9993014344236275e-01  9.9994627283219639e-01  9.9995895260951084e-01  9.9996882086736349e-01  9.9997643134978109e-01  9.9998225242265570e-01  9.9998667183576018e-01  9.9999000479859501e-01  9.9999356619588642e-01  9.9999174718167994e-01  9.9998859015918273e-01  9.9998432640142010e-01  9.9997860703261687e-01  9.9997099083103647e-01  9.9996092803557446e-01  9.9994774535188569e-01  9.9993063469227272e-01  9.9990864928375678e-01  9.9988071199084172e-01  9.9984564183914915e-01  9.9980220547470444e-01  9.9974920017774993e-01  9.9968557345942677e-01  9.9961058054546792e-01  9.9952397467641774e-01  9.9942621606155435e-01  9.9931867428568633e-01  9.9920378794954068e-01  9.9908513758730344e-01  9.9896738758715564e-01  9.9885606381236147e-01  9.9875715769218054e-01  9.9867658258209413e-01  9.9861954709141609e-01  1.0647184453153995e+00  9.9858984825120012e-01  9.9861926626083297e-01  9.9867611393937050e-01  9.9875650152428408e-01  9.9885522252146819e-01  9.9896636699479546e-01  9.9908394786990729e-01  9.9920244398378399e-01  9.9931719534220642e-01  9.9942462493418538e-01  9.9952229643365009e-01  9.9960884112792558e-01  9.9968379832938747e-01  9.9974741317386207e-01  9.9980042795904644e-01  9.9984389216217984e-01  9.9987900525280360e-01  9.9990699734210753e-01  9.9992904635214142e-01  9.9994622667647737e-01  9.9995948272114099e-01  9.9996962060253836e-01  9.9997731202845774e-01  9.9998310552682268e-01  9.9998744139693130e-01  9.9999175048212530e-01  9.9998953954552472e-01  9.9998548184323810e-01  9.9997996495126173e-01  9.9997251199489512e-01  9.9996251269079162e-01  9.9994919687922068e-01  9.9993160825173377e-01  9.9990858166223684e-01  9.9987872917038434e-01  9.9984044205413747e-01  9.9979191822402735e-01  9.9973122633283207e-01  9.9965641866927302e-01  9.9956570361032460e-01  9.9945768371415955e-01  9.9933165623322584e-01  9.9918795823296691e-01  9.9902831923835256e-01  9.9885616316431569e-01  9.9867678367562718e-01  9.9849731087993476e-01  9.9832640073668655e-01  9.9817361720751896e-01  9.9804853926586512e-01  9.9795969854025401e-01  1.0638803795642526e+00  9.9791344696495632e-01  9.9795948432459780e-01  9.9804817301370996e-01  9.9817308785770587e-01  9.9832569759230305e-01  9.9849642687128837e-01  9.9867571794029086e-01  9.9885492246613539e-01  9.9902691808604882e-01  9.9918641786235685e-01  9.9933000281090723e-01  9.9945594618464473e-01  9.9956391156621938e-01  9.9965460051921728e-01  9.9972940791883047e-01  9.9979012193046291e-01  9.9983868637158879e-01  9.9987702863156369e-01  9.9990694705003225e-01  9.9993004698209553e-01  9.9994771347601374e-01  9.9996110928890369e-01  9.9997118882721814e-01  9.9997872079200634e-01  9.9998431439331503e-01  9.9998954288306285e-01  9.9998688769443567e-01  9.9998172173809352e-01  9.9997465011587550e-01  9.9996502758282624e-01  9.9995201851707660e-01  9.9993455480368010e-01  9.9991129164709214e-01  9.9988056561310557e-01  9.9984036191235770e-01  9.9978830137465158e-01  9.9972166151636488e-01  9.9963745001713944e-01  9.9953255174027777e-01  9.9940397047321350e-01  9.9924918153911613e-01  9.9906659874049697e-01  9.9885613660966965e-01  9.9861981634833685e-01  9.9836232445222206e-01  9.9809139543403735e-01  9.9781786850622167e-01  9.9755527993377413e-01  9.9731891221977487e-01  9.9712433016319901e-01  9.9698557336930260e-01  1.0626625130047553e+00  9.9691328314967376e-01  9.9698550047475720e-01  9.9712418257195001e-01  9.9731865675386455e-01  9.9755488044492047e-01  9.9781729293241928e-01  9.9809062148627592e-01  9.9836134298106227e-01  9.9861863215052471e-01  9.9885476703816811e-01  9.9906507083673168e-01  9.9924752849455167e-01  9.9940222811452084e-01  9.9953075551611259e-01  9.9963563273199907e-01  9.9971985186400969e-01  9.9978652319330608e-01  9.9983863401560413e-01  9.9987890203061536e-01  9.9990970212101082e-01  9.9993304541435202e-01  9.9995059234464234e-01  9.9996368534218183e-01  9.9997339072811164e-01  9.9998054282082216e-01  9.9998689094253879e-01  9.9998374303134629e-01  9.9997723139433670e-01  9.9996825620717267e-01  9.9995595392318359e-01  9.9993919285612209e-01  9.9991650779316954e-01  9.9988602815051097e-01  9.9984540474560479e-01  9.9979174426493633e-01  9.9972156591934358e-01  9.9963080150745065e-01  9.9951486756782704e-01  9.9936884510420121e-01  9.9918780598871804e-01  9.9896732171409441e-01  9.9870417465785510e-01  9.9839725927814005e-01  9.9804860759323111e-01  9.9766440243399201e-01  9.9725576558477091e-01  9.9683905073180767e-01  9.9643536790257292e-01  9.9606915101126337e-01  9.9576576766042058e-01  9.9554843422662176e-01  1.0608858507439729e+00  9.9543503528844968e-01  9.9554862958123636e-01  9.9576603529747976e-01  9.9606941627640655e-01  9.9643554734357997e-01  9.9683906635532860e-01  9.9725555622974182e-01  9.9766393047719604e-01  9.9804786068137141e-01  9.9839624794995674e-01  9.9870292733012855e-01  9.9896587857417518e-01  9.9918621304024091e-01  9.9936714916391722e-01  9.9951311257526465e-01  9.9962902617591709e-01  9.9971980255173920e-01  9.9979001846541704e-01  9.9984373574572805e-01  9.9988442950260537e-01  9.9991498823778935e-01  9.9993775722707734e-01  9.9995460400328240e-01  9.9996699148666524e-01  9.9997604971182563e-01  9.9998374602228701e-01  9.9998006523855276e-01  9.9997194291662350e-01  9.9996067027189006e-01  9.9994510514965607e-01  9.9992373296480308e-01  9.9989456753706629e-01  9.9985503771677087e-01  9.9980186512353963e-01  9.9973094396439099e-01  9.9963724203877380e-01  9.9951475291173442e-01  9.9935654245902616e-01  9.9915494699737650e-01  9.9890199154577608e-01  9.9859009934200771e-01  9.9821314859494914e-01  9.9776788866051569e-01  9.9725564568903735e-01  9.9668412515971527e-01  9.9606897011738527e-01  9.9543459929752653e-01  9.9481379531905312e-01  9.9424561747471740e-01  9.9377152728545926e-01  9.9343011130587444e-01  1.0582873586164456e+00  9.9325156559513261e-01  9.9343078822548192e-01  9.9377253848864000e-01  9.9424681216599731e-01  9.9481500437596193e-01  9.9543566302351338e-01  9.9606975977060375e-01  9.9668455507506881e-01  9.9725567586511887e-01  9.9776751988467516e-01  9.9821241313469955e-01  9.9858905011567112e-01  9.9890069194717335e-01  9.9915346263232696e-01  9.9935493525194752e-01  9.9951307748737517e-01  9.9963554398349219e-01  9.9972925946760482e-01  9.9980022152108750e-01  9.9985345454164387e-01  9.9989305778570348e-01  9.9992230438355323e-01  9.9994376142454533e-01  9.9995941206270123e-01  9.9997076871535540e-01  9.9998006775822168e-01  9.9997582762620363e-01  9.9996580718405859e-01  9.9995180461501787e-01  9.9993232828226675e-01  9.9990537691392856e-01  9.9986829262288612e-01  9.9981758687814082e-01  9.9974874381317080e-01  9.9965601277861260e-01  9.9953221368095002e-01  9.9936859532739164e-01  9.9915480901181264e-01  9.9887908568852102e-01  9.9852873117249119e-01  9.9809107118814466e-01  9.9755497199512477e-01  9.9691301183988823e-01  9.9616426015685233e-01  9.9531741925812889e-01  9.9439380662005694e-01  9.9342936236215273e-01  9.9247467668028133e-01  9.9159211351496146e-01  9.9084960550995704e-01  9.9031161855830840e-01  1.0544815834130130e+00  9.9002942484744483e-01  9.9031313333716375e-01  9.9085190463114481e-01  9.9159490800180672e-01  9.9247764470269972e-01  9.9343220207758731e-01  9.9439627541735709e-01  9.9531935407376559e-01  9.9616557977600328e-01  9.9691370608173291e-01  9.9755508393922787e-01  9.9809067782069227e-01  9.9852792609094188e-01  9.9887796568476062e-01  9.9915346494384683e-01  9.9936710682460161e-01  9.9953064683664805e-01  9.9965441991708814e-01  9.9974716453095458e-01  9.9981604974247107e-01  9.9986681709815139e-01  9.9990397524651031e-01  9.9993100719508377e-01  9.9995056674658400e-01  9.9996465225969577e-01  9.9997582941031826e-01  9.9997102313252839e-01  9.9995880332758513e-01  9.9994161166268192e-01  9.9991752634154085e-01  9.9988393918002738e-01  9.9983734269613123e-01  9.9977306998645343e-01  9.9968498862384347e-01  9.9956515914694122e-01  9.9940348437331106e-01  9.9918739994754591e-01  9.9890169104499960e-01  9.9852856516860811e-01  9.9804816283766207e-01  9.9743973584286150e-01  9.9668374457691411e-01  9.9576508534919583e-01  9.9467750650855769e-01  9.9342895987759205e-01  9.9204714433957053e-01  9.9058389676243430e-01  9.8911657217522408e-01  9.8774447202662552e-01  9.8657910163678186e-01  9.8572872078346430e-01  1.0489060836678892e+00  9.8528095880747735e-01  9.8573166677673618e-01  9.8658358706559512e-01  9.8774995847543212e-01  9.8912246837055429e-01  9.9058965773477303e-01  9.9205234073171500e-01  9.9343330933038831e-01  9.9468087161721519e-01  9.9576744947396989e-01  9.9668517777259746e-01  9.9744036050839113e-01  9.9804812481029259e-01  9.9852801253313195e-01  9.9890076057793387e-01  9.9918620988509010e-01  9.9940213179286208e-01  9.9956372034602936e-01  9.9968352119711212e-01  9.9977161566807649e-01  9.9983593036231000e-01  9.9988258766029325e-01  9.9991624686622937e-01  9.9994040988899591e-01  9.9995768095405591e-01  9.9997102386509717e-01  9.9996567055044860e-01  9.9995094885468372e-01  9.9993010032186613e-01  9.9990068459482273e-01  9.9985935240830237e-01  9.9980154427843249e-01  9.9972111176983336e-01  9.9960985574419714e-01  9.9945698648057013e-01  9.9924853011345860e-01  9.9896673868480801e-01  9.9858961188572104e-01  9.9809071085359602e-01  9.9743953757177684e-01  9.9660285705091345e-01  9.9554742481949121e-01  9.9424459233741724e-01  9.9267710654235952e-01  9.9084798155467457e-01  9.8879050704901206e-01  9.8657729605925648e-01  9.8432505334109033e-01  9.8219111210217080e-01  9.8035863307589144e-01  9.7901031775419878e-01  1.0407454314035542e+00  9.7829701431480620e-01  9.7901568241726022e-01  9.8036678346014261e-01  9.8220106009398855e-01  9.8433573563192600e-01  9.8658775816772881e-01  9.8880002170389247e-01  9.9085609168871869e-01  9.9268360776061970e-01  9.9424948005752922e-01  9.9555082976982490e-01  9.9660498542972087e-01  9.9744062403662059e-01  9.9809098632261839e-01  9.9858928452794316e-01  9.9896598499200506e-01  9.9924749280133363e-01  9.9945577648036832e-01  9.9960855626359657e-01  9.9971978307999865e-01  9.9980022842357419e-01  9.9985807741826171e-01  9.9989946803122709e-01  9.9992895213698263e-01  9.9994987362073573e-01  9.9996566986544522e-01  9.9995982036166553e-01  9.9994230947442586e-01  9.9991735241516788e-01  9.9988189785316306e-01  9.9983171240449042e-01  9.9976096429589334e-01  9.9966168633697350e-01  9.9952310018687951e-01  9.9933079388242174e-01  9.9906576660470336e-01  9.9870339584384993e-01  9.9821245169022177e-01  9.9755439100180465e-01  9.9668331790486198e-01  9.9554719276109749e-01  9.9409107991141021e-01  9.9226336764794176e-01  9.9002582139643147e-01  9.8736781009329955e-01  9.8432380775436989e-01  9.8099117556905180e-01  9.7754257306338033e-01  9.7422523447691689e-01  9.7133973757792857e-01  9.6919575353809395e-01  1.0288288029634109e+00  9.6805494510959367e-01  9.6920518161955538e-01  9.7135398219485869e-01  9.7424249567688637e-01  9.7756096565749595e-01  9.8100906672764165e-01  9.8434001046651409e-01  9.8738162876565427e-01  9.9003699181132099e-01  9.9227194549638820e-01  9.9409732162060138e-01  9.9555145425847547e-01  9.9668598104121331e-01  9.9755581714043684e-01  9.9821295713953173e-01  9.9870324262126287e-01  9.9906516273302259e-01  9.9932989882264478e-01  9.9952203243521121e-01  9.9966053137453148e-01  9.9975978191373172e-01  9.9983054297154883e-01  9.9988076742032739e-01  9.9991627672345296e