<?xml version="1.0"?>
<VTKFile type="UnstructuredGrid"  version="0.1"  >
<UnstructuredGrid>
<Piece  NumberOfPoints="288" NumberOfCells="510">
<Points>
<DataArray  type="Float64"  NumberOfComponents="3"  format="ascii">0 0 0  0.06666666666666667 0 0  0.1333333333333333 0 0  0.2 0 0  0.2666666666666667 0 0  0.3333333333333333 0 0  0.4 0 0  0.4666666666666667 0 0  0.5333333333333333 0 0  0.6 0 0  0.6666666666666666 0 0  0.7333333333333333 0 0  0.8 0 0  0.8666666666666667 0 0  0.9333333333333333 0 0  1 0 0  0 0.05882352941176471 0  0.06666666666666667 0.05882352941176471 0  0.1333333333333333 0.05882352941176471 0  0.2 0.05882352941176471 0  0.2666666666666667 0.05882352941176471 0  0.3333333333333333 0.05882352941176471 0  0.4 0.05882352941176471 0  0.4666666666666667 0.05882352941176471 0  0.5333333333333333 0.05882352941176471 0  0.6 0.05882352941176471 0  0.6666666666666666 0.05882352941176471 0  0.7333333333333333 0.05882352941176471 0  0.8 0.05882352941176471 0  0.8666666666666667 0.05882352941176471 0  0.9333333333333333 0.05882352941176471 0  1 0.05882352941176471 0  0 0.1176470588235294 0  0.06666666666666667 0.1176470588235294 0  0.1333333333333333 0.1176470588235294 0  0.2 0.1176470588235294 0  0.2666666666666667 0.1176470588235294 0  0.3333333333333333 0.1176470588235294 0  0.4 0.1176470588235294 0  0.4666666666666667 0.1176470588235294 0  0.5333333333333333 0.1176470588235294 0  0.6 0.1176470588235294 0  0.6666666666666666 0.1176470588235294 0  0.7333333333333333 0.1176470588235294 0  0.8 0.1176470588235294 0  0.8666666666666667 0.1176470588235294 0  0.9333333333333333 0.1176470588235294 0  1 0.1176470588235294 0  0 0.1764705882352941 0  0.06666666666666667 0.1764705882352941 0  0.1333333333333333 0.1764705882352941 0  0.2 0.1764705882352941 0  0.2666666666666667 0.1764705882352941 0  0.3333333333333333 0.1764705882352941 0  0.4 0.1764705882352941 0  0.4666666666666667 0.1764705882352941 0  0.5333333333333333 0.1764705882352941 0  0.6 0.1764705882352941 0  0.6666666666666666 0.1764705882352941 0  0.7333333333333333 0.1764705882352941 0  0.8 0.1764705882352941 0  0.8666666666666667 0.1764705882352941 0  0.9333333333333333 0.1764705882352941 0  1 0.1764705882352941 0  0 0.2352941176470588 0  0.06666666666666667 0.2352941176470588 0  0.1333333333333333 0.2352941176470588 0  0.2 0.2352941176470588 0  0.2666666666666667 0.2352941176470588 0  0.3333333333333333 0.2352941176470588 0  0.4 0.2352941176470588 0  0.4666666666666667 0.2352941176470588 0  0.5333333333333333 0.2352941176470588 0  0.6 0.2352941176470588 0  0.6666666666666666 0.2352941176470588 0  0.7333333333333333 0.2352941176470588 0  0.8 0.2352941176470588 0  0.8666666666666667 0.2352941176470588 0  0.9333333333333333 0.2352941176470588 0  1 0.2352941176470588 0  0 0.2941176470588235 0  0.06666666666666667 0.2941176470588235 0  0.1333333333333333 0.2941176470588235 0  0.2 0.2941176470588235 0  0.2666666666666667 0.2941176470588235 0  0.3333333333333333 0.2941176470588235 0  0.4 0.2941176470588235 0  0.4666666666666667 0.2941176470588235 0  0.5333333333333333 0.2941176470588235 0  0.6 0.2941176470588235 0  0.6666666666666666 0.2941176470588235 0  0.7333333333333333 0.2941176470588235 0  0.8 0.2941176470588235 0  0.8666666666666667 0.2941176470588235 0  0.9333333333333333 0.2941176470588235 0  1 0.2941176470588235 0  0 0.3529411764705883 0  0.06666666666666667 0.3529411764705883 0  0.1333333333333333 0.3529411764705883 0  0.2 0.3529411764705883 0  0.2666666666666667 0.3529411764705883 0  0.3333333333333333 0.3529411764705883 0  0.4 0.3529411764705883 0  0.4666666666666667 0.3529411764705883 0  0.5333333333333333 0.3529411764705883 0  0.6 0.3529411764705883 0  0.6666666666666666 0.3529411764705883 0  0.7333333333333333 0.3529411764705883 0  0.8 0.3529411764705883 0  0.8666666666666667 0.3529411764705883 0  0.9333333333333333 0.3529411764705883 0  1 0.3529411764705883 0  0 0.4117647058823529 0  0.06666666666666667 0.4117647058823529 0  0.1333333333333333 0.4117647058823529 0  0.2 0.4117647058823529 0  0.2666666666666667 0.4117647058823529 0  0.3333333333333333 0.4117647058823529 0  0.4 0.4117647058823529 0  0.4666666666666667 0.4117647058823529 0  0.5333333333333333 0.4117647058823529 0  0.6 0.4117647058823529 0  0.6666666666666666 0.4117647058823529 0  0.7333333333333333 0.4117647058823529 0  0.8 0.4117647058823529 0  0.8666666666666667 0.4117647058823529 0  0.9333333333333333 0.4117647058823529 0  1 0.4117647058823529 0  0 0.4705882352941176 0  0.06666666666666667 0.4705882352941176 0  0.1333333333333333 0.4705882352941176 0  0.2 0.4705882352941176 0  0.2666666666666667 0.4705882352941176 0  0.3333333333333333 0.4705882352941176 0  0.4 0.4705882352941176 0  0.4666666666666667 0.4705882352941176 0  0.5333333333333333 0.4705882352941176 0  0.6 0.4705882352941176 0  0.6666666666666666 0.4705882352941176 0  0.7333333333333333 0.4705882352941176 0  0.8 0.4705882352941176 0  0.8666666666666667 0.4705882352941176 0  0.9333333333333333 0.4705882352941176 0  1 0.4705882352941176 0  0 0.5294117647058824 0  0.06666666666666667 0.5294117647058824 0  0.1333333333333333 0.5294117647058824 0  0.2 0.5294117647058824 0  0.2666666666666667 0.5294117647058824 0  0.3333333333333333 0.5294117647058824 0  0.4 0.5294117647058824 0  0.4666666666666667 0.5294117647058824 0  0.5333333333333333 0.5294117647058824 0  0.6 0.5294117647058824 0  0.6666666666666666 0.5294117647058824 0  0.7333333333333333 0.5294117647058824 0  0.8 0.5294117647058824 0  0.8666666666666667 0.5294117647058824 0  0.9333333333333333 0.5294117647058824 0  1 0.5294117647058824 0  0 0.5882352941176471 0  0.06666666666666667 0.5882352941176471 0  0.1333333333333333 0.5882352941176471 0  0.2 0.5882352941176471 0  0.2666666666666667 0.5882352941176471 0  0.3333333333333333 0.5882352941176471 0  0.4 0.5882352941176471 0  0.4666666666666667 0.5882352941176471 0  0.5333333333333333 0.5882352941176471 0  0.6 0.5882352941176471 0  0.6666666666666666 0.5882352941176471 0  0.7333333333333333 0.5882352941176471 0  0.8 0.5882352941176471 0  0.8666666666666667 0.5882352941176471 0  0.9333333333333333 0.5882352941176471 0  1 0.5882352941176471 0  0 0.6470588235294118 0  0.06666666666666667 0.6470588235294118 0  0.1333333333333333 0.6470588235294118 0  0.2 0.6470588235294118 0  0.2666666666666667 0.6470588235294118 0  0.3333333333333333 0.6470588235294118 0  0.4 0.6470588235294118 0  0.4666666666666667 0.6470588235294118 0  0.5333333333333333 0.6470588235294118 0  0.6 0.6470588235294118 0  0.6666666666666666 0.6470588235294118 0  0.7333333333333333 0.6470588235294118 0  0.8 0.6470588235294118 0  0.8666666666666667 0.6470588235294118 0  0.9333333333333333 0.6470588235294118 0  1 0.6470588235294118 0  0 0.7058823529411765 0  0.06666666666666667 0.7058823529411765 0  0.1333333333333333 0.7058823529411765 0  0.2 0.7058823529411765 0  0.2666666666666667 0.7058823529411765 0  0.3333333333333333 0.7058823529411765 0  0.4 0.7058823529411765 0  0.4666666666666667 0.7058823529411765 0  0.5333333333333333 0.7058823529411765 0  0.6 0.7058823529411765 0  0.6666666666666666 0.7058823529411765 0  0.7333333333333333 0.7058823529411765 0  0.8 0.7058823529411765 0  0.8666666666666667 0.7058823529411765 0  0.9333333333333333 0.7058823529411765 0  1 0.7058823529411765 0  0 0.7647058823529411 0  0.06666666666666667 0.7647058823529411 0  0.1333333333333333 0.7647058823529411 0  0.2 0.7647058823529411 0  0.2666666666666667 0.7647058823529411 0  0.3333333333333333 0.7647058823529411 0  0.4 0.7647058823529411 0  0.4666666666666667 0.7647058823529411 0  0.5333333333333333 0.7647058823529411 0  0.6 0.7647058823529411 0  0.6666666666666666 0.7647058823529411 0  0.7333333333333333 0.7647058823529411 0  0.8 0.7647058823529411 0  0.8666666666666667 0.7647058823529411 0  0.9333333333333333 0.7647058823529411 0  1 0.7647058823529411 0  0 0.8235294117647058 0  0.06666666666666667 0.8235294117647058 0  0.1333333333333333 0.8235294117647058 0  0.2 0.8235294117647058 0  0.2666666666666667 0.8235294117647058 0  0.3333333333333333 0.8235294117647058 0  0.4 0.8235294117647058 0  0.4666666666666667 0.8235294117647058 0  0.5333333333333333 0.8235294117647058 0  0.6 0.8235294117647058 0  0.6666666666666666 0.8235294117647058 0  0.7333333333333333 0.8235294117647058 0  0.8 0.8235294117647058 0  0.8666666666666667 0.8235294117647058 0  0.9333333333333333 0.8235294117647058 0  1 0.8235294117647058 0  0 0.8823529411764706 0  0.06666666666666667 0.8823529411764706 0  0.1333333333333333 0.8823529411764706 0  0.2 0.8823529411764706 0  0.2666666666666667 0.8823529411764706 0  0.3333333333333333 0.8823529411764706 0  0.4 0.8823529411764706 0  0.4666666666666667 0.8823529411764706 0  0.5333333333333333 0.8823529411764706 0  0.6 0.8823529411764706 0  0.6666666666666666 0.8823529411764706 0  0.7333333333333333 0.8823529411764706 0  0.8 0.8823529411764706 0  0.8666666666666667 0.8823529411764706 0  0.9333333333333333 0.8823529411764706 0  1 0.8823529411764706 0  0 0.9411764705882353 0  0.06666666666666667 0.9411764705882353 0  0.1333333333333333 0.9411764705882353 0  0.2 0.9411764705882353 0  0.2666666666666667 0.9411764705882353 0  0.3333333333333333 0.9411764705882353 0  0.4 0.9411764705882353 0  0.4666666666666667 0.9411764705882353 0  0.5333333333333333 0.9411764705882353 0  0.6 0.9411764705882353 0  0.6666666666666666 0.9411764705882353 0  0.7333333333333333 0.9411764705882353 0  0.8 0.9411764705882353 0  0.8666666666666667 0.9411764705882353 0  0.9333333333333333 0.9411764705882353 0  1 0.9411764705882353 0  0 1 0  0.06666666666666667 1 0  0.1333333333333333 1 0  0.2 1 0  0.2666666666666667 1 0  0.3333333333333333 1 0  0.4 1 0  0.4666666666666667 1 0  0.5333333333333333 1 0  0.6 1 0  0.6666666666666666 1 0  0.7333333333333333 1 0  0.8 1 0  0.8666666666666667 1 0  0.9333333333333333 1 0  1 1 0  </DataArray>
</Points>
<Cells>
<DataArray  type="UInt32"  Name="connectivity"  format="ascii">0 1 17  0 16 17  1 2 18  1 17 18  2 3 19  2 18 19  3 4 20  3 19 20  4 5 21  4 20 21  5 6 22  5 21 22  6 7 23  6 22 23  7 8 24  7 23 24  8 9 25  8 24 25  9 10 26  9 25 26  10 11 27  10 26 27  11 12 28  11 27 28  12 13 29  12 28 29  13 14 30  13 29 30  14 15 31  14 30 31  16 17 33  16 32 33  17 18 34  17 33 34  18 19 35  18 34 35  19 20 36  19 35 36  20 21 37  20 36 37  21 22 38  21 37 38  22 23 39  22 38 39  23 24 40  23 39 40  24 25 41  24 40 41  25 26 42  25 41 42  26 27 43  26 42 43  27 28 44  27 43 44  28 29 45  28 44 45  29 30 46  29 45 46  30 31 47  30 46 47  32 33 49  32 48 49  33 34 50  33 49 50  34 35 51  34 50 51  35 36 52  35 51 52  36 37 53  36 52 53  37 38 54  37 53 54  38 39 55  38 54 55  39 40 56  39 55 56  40 41 57  40 56 57  41 42 58  41 57 58  42 43 59  42 58 59  43 44 60  43 59 60  44 45 61  44 60 61  45 46 62  45 61 62  46 47 63  46 62 63  48 49 65  48 64 65  49 50 66  49 65 66  50 51 67  50 66 67  51 52 68  51 67 68  52 53 69  52 68 69  53 54 70  53 69 70  54 55 71  54 70 71  55 56 72  55 71 72  56 57 73  56 72 73  57 58 74  57 73 74  58 59 75  58 74 75  59 60 76  59 75 76  60 61 77  60 76 77  61 62 78  61 77 78  62 63 79  62 78 79  64 65 81  64 80 81  65 66 82  65 81 82  66 67 83  66 82 83  67 68 84  67 83 84  68 69 85  68 84 85  69 70 86  69 85 86  70 71 87  70 86 87  71 72 88  71 87 88  72 73 89  72 88 89  73 74 90  73 89 90  74 75 91  74 90 91  75 76 92  75 91 92  76 77 93  76 92 93  77 78 94  77 93 94  78 79 95  78 94 95  80 81 97  80 96 97  81 82 98  81 97 98  82 83 99  82 98 99  83 84 100  83 99 100  84 85 101  84 100 101  85 86 102  85 101 102  86 87 103  86 102 103  87 88 104  87 103 104  88 89 105  88 104 105  89 90 106  89 105 106  90 91 107  90 106 107  91 92 108  91 107 108  92 93 109  92 108 109  93 94 110  93 109 110  94 95 111  94 110 111  96 97 113  96 112 113  97 98 114  97 113 114  98 99 115  98 114 115  99 100 116  99 115 116  100 101 117  100 116 117  101 102 118  101 117 118  102 103 119  102 118 119  103 104 120  103 119 120  104 105 121  104 120 121  105 106 122  105 121 122  106 107 123  106 122 123  107 108 124  107 123 124  108 109 125  108 124 125  109 110 126  109 125 126  110 111 127  110 126 127  112 113 129  112 128 129  113 114 130  113 129 130  114 115 131  114 130 131  115 116 132  115 131 132  116 117 133  116 132 133  117 118 134  117 133 134  118 119 135  118 134 135  119 120 136  119 135 136  120 121 137  120 136 137  121 122 138  121 137 138  122 123 139  122 138 139  123 124 140  123 139 140  124 125 141  124 140 141  125 126 142  125 141 142  126 127 143  126 142 143  128 129 145  128 144 145  129 130 146  129 145 146  130 131 147  130 146 147  131 132 148  131 147 148  132 133 149  132 148 149  133 134 150  133 149 150  134 135 151  134 150 151  135 136 152  135 151 152  136 137 153  136 152 153  137 138 154  137 153 154  138 139 155  138 154 155  139 140 156  139 155 156  140 141 157  140 156 157  141 142 158  141 157 158  142 143 159  142 158 159  144 145 161  144 160 161  145 146 162  145 161 162  146 147 163  146 162 163  147 148 164  147 163 164  148 149 165  148 164 165  149 150 166  149 165 166  150 151 167  150 166 167  151 152 168  151 167 168  152 153 169  152 168 169  153 154 170  153 169 170  154 155 171  154 170 171  155 156 172  155 171 172  156 157 173  156 172 173  157 158 174  157 173 174  158 159 175  158 174 175  160 161 177  160 176 177  161 162 178  161 177 178  162 163 179  162 178 179  163 164 180  163 179 180  164 165 181  164 180 181  165 166 182  165 181 182  166 167 183  166 182 183  167 168 184  167 183 184  168 169 185  168 184 185  169 170 186  169 185 186  170 171 187  170 186 187  171 172 188  171 187 188  172 173 189  172 188 189  173 174 190  173 189 190  174 175 191  174 190 191  176 177 193  176 192 193  177 178 194  177 193 194  178 179 195  178 194 195  179 180 196  179 195 196  180 181 197  180 196 197  181 182 198  181 197 198  182 183 199  182 198 199  183 184 200  183 199 200  184 185 201  184 200 201  185 186 202  185 201 202  186 187 203  186 202 203  187 188 204  187 203 204  188 189 205  188 204 205  189 190 206  189 205 206  190 191 207  190 206 207  192 193 209  192 208 209  193 194 210  193 209 210  194 195 211  194 210 211  195 196 212  195 211 212  196 197 213  196 212 213  197 198 214  197 213 214  198 199 215  198 214 215  199 200 216  199 215 216  200 201 217  200 216 217  201 202 218  201 217 218  202 203 219  202 218 219  203 204 220  203 219 220  204 205 221  204 220 221  205 206 222  205 221 222  206 207 223  206 222 223  208 209 225  208 224 225  209 210 226  209 225 226  210 211 227  210 226 227  211 212 228  211 227 228  212 213 229  212 228 229  213 214 230  213 229 230  214 215 231  214 230 231  215 216 232  215 231 232  216 217 233  216 232 233  217 218 234  217 233 234  218 219 235  218 234 235  219 220 236  219 235 236  220 221 237  220 236 237  221 222 238  221 237 238  222 223 239  222 238 239  224 225 241  224 240 241  225 226 242  225 241 242  226 227 243  226 242 243  227 228 244  227 243 244  228 229 245  228 244 245  229 230 246  229 245 246  230 231 247  230 246 247  231 232 248  231 247 248  232 233 249  232 248 249  233 234 250  233 249 250  234 235 251  234 250 251  235 236 252  235 251 252  236 237 253  236 252 253  237 238 254  237 253 254  238 239 255  238 254 255  240 241 257  240 256 257  241 242 258  241 257 258  242 243 259  242 258 259  243 244 260  243 259 260  244 245 261  244 260 261  245 246 262  245 261 262  246 247 263  246 262 263  247 248 264  247 263 264  248 249 265  248 264 265  249 250 266  249 265 266  250 251 267  250 266 267  251 252 268  251 267 268  252 253 269  252 268 269  253 254 270  253 269 270  254 255 271  254 270 271  256 257 273  256 272 273  257 258 274  257 273 274  258 259 275  258 274 275  259 260 276  259 275 276  260 261 277  260 276 277  261 262 278  261 277 278  262 263 279  262 278 279  263 264 280  263 279 280  264 265 281  264 280 281  265 266 282  265 281 282  266 267 283  266 282 283  267 268 284  267 283 284  268 269 285  268 284 285  269 270 286  269 285 286  270 271 287  270 286 287  </DataArray>
<DataArray  type="UInt32"  Name="offsets"  format="ascii">3 6 9 12 15 18 21 24 27 30 33 36 39 42 45 48 51 54 57 60 63 66 69 72 75 78 81 84 87 90 93 96 99 102 105 108 111 114 117 120 123 126 129 132 135 138 141 144 147 150 153 156 159 162 165 168 171 174 177 180 183 186 189 192 195 198 201 204 207 210 213 216 219 222 225 228 231 234 237 240 243 246 249 252 255 258 261 264 267 270 273 276 279 282 285 288 291 294 297 300 303 306 309 312 315 318 321 324 327 330 333 336 339 342 345 348 351 354 357 360 363 366 369 372 375 378 381 384 387 390 393 396 399 402 405 408 411 414 417 420 423 426 429 432 435 438 441 444 447 450 453 456 459 462 465 468 471 474 477 480 483 486 489 492 495 498 501 504 507 510 513 516 519 522 525 528 531 534 537 540 543 546 549 552 555 558 561 564 567 570 573 576 579 582 585 588 591 594 597 600 603 606 609 612 615 618 621 624 627 630 633 636 639 642 645 648 651 654 657 660 663 666 669 672 675 678 681 684 687 690 693 696 699 702 705 708 711 714 717 720 723 726 729 732 735 738 741 744 747 750 753 756 759 762 765 768 771 774 777 780 783 786 789 792 795 798 801 804 807 810 813 816 819 822 825 828 831 834 837 840 843 846 849 852 855 858 861 864 867 870 873 876 879 882 885 888 891 894 897 900 903 906 909 912 915 918 921 924 927 930 933 936 939 942 945 948 951 954 957 960 963 966 969 972 975 978 981 984 987 990 993 996 999 1002 1005 1008 1011 1014 1017 1020 1023 1026 1029 1032 1035 1038 1041 1044 1047 1050 1053 1056 1059 1062 1065 1068 1071 1074 1077 1080 1083 1086 1089 1092 1095 1098 1101 1104 1107 1110 1113 1116 1119 1122 1125 1128 1131 1134 1137 1140 1143 1146 1149 1152 1155 1158 1161 1164 1167 1170 1173 1176 1179 1182 1185 1188 1191 1194 1197 1200 1203 1206 1209 1212 1215 1218 1221 1224 1227 1230 1233 1236 1239 1242 1245 1248 1251 1254 1257 1260 1263 1266 1269 1272 1275 1278 1281 1284 1287 1290 1293 1296 1299 1302 1305 1308 1311 1314 1317 1320 1323 1326 1329 1332 1335 1338 1341 1344 1347 1350 1353 1356 1359 1362 1365 1368 1371 1374 1377 1380 1383 1386 1389 1392 1395 1398 1401 1404 1407 1410 1413 1416 1419 1422 1425 1428 1431 1434 1437 1440 1443 1446 1449 1452 1455 1458 1461 1464 1467 1470 1473 1476 1479 1482 1485 1488 1491 1494 1497 1500 1503 1506 1509 1512 1515 1518 1521 1524 1527 1530 </DataArray>
<DataArray  type="UInt8"  Name="types"  format="ascii">5 5 5 5 5 5 5 5 5 5 5 5 5 5 5 5 5 5 5 5 5 5 5 5 5 5 5 5 5 5 5 5 5 5 5 5 5 5 5 5 5 5 5 5 5 5 5 5 5 5 5 5 5 5 5 5 5 5 5 5 5 5 5 5 5 5 5 5 5 5 5 5 5 5 5 5 5 5 5 5 5 5 5 5 5 5 5 5 5 5 5 5 5 5 5 5 5 5 5 5 5 5 5 5 5 5 5 5 5 5 5 5 5 5 5 5 5 5 5 5 5 5 5 5 5 5 5 5 5 5 5 5 5 5 5 5 5 5 5 5 5 5 5 5 5 5 5 5 5 5 5 5 5 5 5 5 5 5 5 5 5 5 5 5 5 5 5 5 5 5 5 5 5 5 5 5 5 5 5 5 5 5 5 5 5 5 5 5 5 5 5 5 5 5 5 5 5 5 5 5 5 5 5 5 5 5 5 5 5 5 5 5 5 5 5 5 5 5 5 5 5 5 5 5 5 5 5 5 5 5 5 5 5 5 5 5 5 5 5 5 5 5 5 5 5 5 5 5 5 5 5 5 5 5 5 5 5 5 5 5 5 5 5 5 5 5 5 5 5 5 5 5 5 5 5 5 5 5 5 5 5 5 5 5 5 5 5 5 5 5 5 5 5 5 5 5 5 5 5 5 5 5 5 5 5 5 5 5 5 5 5 5 5 5 5 5 5 5 5 5 5 5 5 5 5 5 5 5 5 5 5 5 5 5 5 5 5 5 5 5 5 5 5 5 5 5 5 5 5 5 5 5 5 5 5 5 5 5 5 5 5 5 5 5 5 5 5 5 5 5 5 5 5 5 5 5 5 5 5 5 5 5 5 5 5 5 5 5 5 5 5 5 5 5 5 5 5 5 5 5 5 5 5 5 5 5 5 5 5 5 5 5 5 5 5 5 5 5 5 5 5 5 5 5 5 5 5 5 5 5 5 5 5 5 5 5 5 5 5 5 5 5 5 5 5 5 5 5 5 5 5 5 5 5 5 5 5 5 5 5 5 5 5 5 5 5 5 5 5 5 5 5 5 5 5 5 5 5 5 5 5 5 5 5 5 5 5 5 5 5 5 5 5 5 5 5 5 5 5 5 5 5 5 5 5 5 5 5 5 5 </DataArray>
</Cells>
<PointData  Scalars="f_21"> 
<DataArray  type="Float64"  Name="f_21"  format="ascii">-2.3561154533636119e+00  -2.4262173288619691e+00  -2.5077576181452508e+00  -2.6003057010959743e+00  -2.7043310985269478e+00  -2.8194529280188765e+00  -2.9440628392038160e+00  -3.0751518197026710e+00  3.0746326037428089e+00  2.9435418673855178e+00  2.8189290275903791e+00  2.7038041130856922e+00  2.5997766724619216e+00  2.5072287039722108e+00  2.4256926109413115e+00  2.3558546910851814e+00  -2.2949308087741747e+00  -2.3651601334933505e+00  -2.4481597012324721e+00  -2.5444093552998517e+00  -2.6550953027580189e+00  -2.7803816277057534e+00  -2.9186843828591931e+00  -3.0661721030529887e+00  3.0661879927850033e+00  2.9186984119534931e+00  2.7803923738881302e+00  2.6551018932217607e+00  2.5444115273348507e+00  2.4481576274536456e+00  2.3651543569006068e+00  2.2949305890724618e+00  -2.2246477169102921e+00  -2.2937813431386447e+00  -2.3771337540310986e+00  -2.4763017758687189e+00  -2.5936618132531568e+00  -2.7305197650082067e+00  -2.8857669132816950e+00  -3.0546078751730148e+00  3.0546593711196506e+00  2.8858045394656648e+00  2.7305419729607339e+00  2.5936777394434265e+00  2.4763122852057053e+00  2.3771393302062656e+00  2.2937827573610172e+00  2.2246508764920012e+00  -2.1459388656876870e+00  -2.2121271459794358e+00  -2.2937765651046678e+00  -2.3939118329533757e+00  -2.5167664306326296e+00  -2.6658777759580712e+00  -2.8417840430517156e+00  -3.0388790990026169e+00  3.0389804480296059e+00  2.8418738095020606e+00  2.6659389914838161e+00  2.5167900394982481e+00  2.3939270153999299e+00  2.2937857844116558e+00  2.2121314685086233e+00  2.1459439713886281e+00  -2.0583559017520132e+00  -2.1191681017525608e+00  -2.1960889270813753e+00  -2.2937772029956820e+00  -2.4190989209086662e+00  -2.5796531127642033e+00  -2.7803524286879031e+00  -3.0162768779518596e+00  3.0163852950085142e+00  2.7804603574250497e+00  2.5797513356077642e+00  2.4191607890090991e+00  2.2937963306252325e+00  2.1961008293678801e+00  2.1191746336817778e+00  2.0583627591117351e+00  -1.9618772333973780e+00  -2.0143432520005939e+00  -2.0824300829261557e+00  -2.1722631883412737e+00  -2.2937797617722229e+00  -2.4610616884549530e+00  -2.6894115345821472e+00  -2.9810416270425200e+00  2.9811258755935675e+00  2.6894980194260163e+00  2.4611488829107997e+00  2.2938625451616694e+00  2.1723022442076654e+00  2.0824427937261816e+00  2.0143509479680124e+00  1.9618854973024953e+00  -1.8571273671012820e+00  -1.8979743814617109e+00  -1.9522399147572906e+00  -2.0265930642594117e+00  -2.1331839781818540e+00  -2.2937811971603868e+00  -2.5443998273723216e+00  -2.9186617107538608e+00  2.9187162966377147e+00  2.5444628451658078e+00  2.2938467890546241e+00  2.1332487575707844e+00  2.0266428499337188e+00  1.9522542474205395e+00  1.8979819798336017e+00  1.8571365353149378e+00  -1.7455476438290098e+00  -1.7716786948646626e+00  -1.8069743891005647e+00  -1.8568846867271589e+00  -1.9323614301734047e+00  -2.0577195754764479e+00  -2.2937820099538149e+00  -2.7803510580146100e+00  2.7803640295199870e+00  2.2938237313500194e+00  2.0577641148034327e+00  1.9324041158094367e+00  1.8569234824774286e+00  1.8069860665460802e+00  1.7716849074153209e+00  1.7455570874602502e+00  -1.6294265025042824e+00  -1.6385747782519506e+00  -1.6508726952356574e+00  -1.6685731013720135e+00  -1.6962297827953972e+00  -1.7455014655923182e+00  -1.8568815812882609e+00  -2.2937774484621047e+00  2.2937954299335170e+00  1.8569255021232529e+00  1.7455270339972246e+00  1.6962493946924615e+00  1.6685899380999951e+00  1.6508785914910555e+00  1.6385785945248375e+00  1.6294355548027806e+00  -1.5117081425393308e+00  -1.5030358427536217e+00  -1.4907901384436852e+00  -1.4731286742422494e+00  -1.4454586532377482e+00  -1.3961553755486986e+00  -1.2847288355040052e+00  -8.4782782107357457e-01  8.4781666296990910e-01  1.2847464867750966e+00  1.3961546795181590e+00  1.4454526668627352e+00  1.4731213963479650e+00  1.4907901255887586e+00  1.5030367347531284e+00  1.5117162314232684e+00  -1.3955857139507841e+00  -1.3699304305116384e+00  -1.3346774624340731e+00  -1.2848104835066021e+00  -1.2093280192702391e+00  -1.0839431846990155e+00  -8.4785553047321893e-01  -3.6128648519514839e-01  3.6121292132436100e-01  8.4781571826221136e-01  1.0839086462196874e+00  1.2092944627015365e+00  1.2847778140491575e+00  1.3346724993363102e+00  1.3699285348247687e+00  1.3955924999208356e+00  -1.2840037384538145e+00  -1.2436320024049941e+00  -1.1893915775370107e+00  -1.1150865279501467e+00  -1.0085054949365380e+00  -8.4788397467377896e-01  -5.9724131337016828e-01  -2.2295960698173228e-01  2.2287731744118272e-01  5.9717080127601552e-01  8.4781991174690063e-01  1.0084456903487824e+00  1.1150395208376684e+00  1.1893823002700503e+00  1.2436280515050167e+00  1.2840091925683628e+00  -1.1792512371054209e+00  -1.1272596126643577e+00  -1.0591831868391979e+00  -9.6938662318506308e-01  -8.4790123501323611e-01  -6.8060328220487953e-01  -4.5222891676184024e-01  -1.6057358047837492e-01  1.6047343353439017e-01  4.5213389913230850e-01  6.8051378020004183e-01  8.4781764881210275e-01  9.6935353850242334e-01  1.0591710701040318e+00  1.1272546373111356e+00  1.1792556182968215e+00  -1.0827702781219324e+00  -1.0224308326469682e+00  -9.4551861117322522e-01  -8.4783610410644461e-01  -7.2254799540033909e-01  -5.6200853756040825e-01  -3.6128649524220285e-01  -1.2533527298837194e-01  1.2521613538634976e-01  3.6117041199823108e-01  5.6190873014359088e-01  7.2248500218742195e-01  8.4781626224893392e-01  9.4550814574168129e-01  1.0224261101015284e+00  1.0827740301053126e+00  -9.9518610685298869e-01  -9.2946787369558392e-01  -8.4782601826826431e-01  -7.4769527103294242e-01  -6.2484226221238282e-01  -4.7574420322771960e-01  -2.9984182529236914e-01  -1.0273064990009091e-01  1.0262231809563299e-01  2.9974714680453673e-01  4.7567561938988895e-01  6.2481862601903038e-01  7.4767972915425029e-01  8.4781727550748420e-01  9.2946461303967531e-01  9.9518973047842674e-01  -9.1647776852389207e-01  -8.4781001579279036e-01  -7.6446442509729740e-01  -6.6530003549846495e-01  -5.4794223008927767e-01  -4.1108365198504027e-01  -2.5583542681432125e-01  -8.6990787253594770e-02  8.6932436778036068e-02  2.5579258084944745e-01  4.1105958963447742e-01  5.4792417606347998e-01  6.6528853837422508e-01  7.6445869849013581e-01  8.4780909644390923e-01  9.1648171902121744e-01  -8.4619860366785382e-01  -7.7642810211444091e-01  -6.9343478721487095e-01  -5.9718812227432150e-01  -4.8650413824219435e-01  -3.6121833645214574e-01  -2.2291451316526553e-01  -7.5424368977514006e-02  7.5403906607845933e-02  2.2289633636364428e-01  3.6120429405147420e-01  4.8649523521173688e-01  5.9718452965274915e-01  6.9343612592928516e-01  7.7643375181714736e-01  8.4620380699622855e-01  -7.8524704341967211e-01  -7.1537611010943702e-01  -6.3383917240348797e-01  -5.4129333547108949e-01  -4.3726987521278288e-01  -3.2214943607001784e-01  -1.9754014304352041e-01  -6.6450888876159409e-02  6.6951066620854455e-02  1.9804334206693114e-01  3.2265772864017855e-01  4.3778379291182712e-01  5.4181176934993380e-01  6.3435964557639524e-01  7.1589483938199927e-01  7.8550754186885563e-01  </DataArray> 
</PointData> 
</Piece>
</UnstructuredGrid>
</VTKFile>