<?xml version="1.0"?>
<VTKFile type="UnstructuredGrid"  version="0.1"  >
<UnstructuredGrid>
<Piece  NumberOfPoints="5101" NumberOfCells="10000">
<Points>
<DataArray  type="Float64"  NumberOfComponents="3"  format="ascii">0 0 0  0.2 0 0  0.4 0 0  0.6 0 0  0.8 0 0  1 0 0  1.2 0 0  1.4 0 0  1.6 0 0  1.8 0 0  2 0 0  2.2 0 0  2.4 0 0  2.6 0 0  2.8 0 0  3 0 0  3.2 0 0  3.4 0 0  3.6 0 0  3.8 0 0  4 0 0  4.2 0 0  4.4 0 0  4.6 0 0  4.8 0 0  5 0 0  5.2 0 0  5.4 0 0  5.6 0 0  5.8 0 0  6 0 0  6.2 0 0  6.4 0 0  6.6 0 0  6.8 0 0  7 0 0  7.2 0 0  7.4 0 0  7.6 0 0  7.8 0 0  8 0 0  8.199999999999999 0 0  8.4 0 0  8.6 0 0  8.800000000000001 0 0  9 0 0  9.199999999999999 0 0  9.4 0 0  9.6 0 0  9.800000000000001 0 0  10 0 0  0 0.2 0  0.2 0.2 0  0.4 0.2 0  0.6 0.2 0  0.8 0.2 0  1 0.2 0  1.2 0.2 0  1.4 0.2 0  1.6 0.2 0  1.8 0.2 0  2 0.2 0  2.2 0.2 0  2.4 0.2 0  2.6 0.2 0  2.8 0.2 0  3 0.2 0  3.2 0.2 0  3.4 0.2 0  3.6 0.2 0  3.8 0.2 0  4 0.2 0  4.2 0.2 0  4.4 0.2 0  4.6 0.2 0  4.8 0.2 0  5 0.2 0  5.2 0.2 0  5.4 0.2 0  5.6 0.2 0  5.8 0.2 0  6 0.2 0  6.2 0.2 0  6.4 0.2 0  6.6 0.2 0  6.8 0.2 0  7 0.2 0  7.2 0.2 0  7.4 0.2 0  7.6 0.2 0  7.8 0.2 0  8 0.2 0  8.199999999999999 0.2 0  8.4 0.2 0  8.6 0.2 0  8.800000000000001 0.2 0  9 0.2 0  9.199999999999999 0.2 0  9.4 0.2 0  9.6 0.2 0  9.800000000000001 0.2 0  10 0.2 0  0 0.4 0  0.2 0.4 0  0.4 0.4 0  0.6 0.4 0  0.8 0.4 0  1 0.4 0  1.2 0.4 0  1.4 0.4 0  1.6 0.4 0  1.8 0.4 0  2 0.4 0  2.2 0.4 0  2.4 0.4 0  2.6 0.4 0  2.8 0.4 0  3 0.4 0  3.2 0.4 0  3.4 0.4 0  3.6 0.4 0  3.8 0.4 0  4 0.4 0  4.2 0.4 0  4.4 0.4 0  4.6 0.4 0  4.8 0.4 0  5 0.4 0  5.2 0.4 0  5.4 0.4 0  5.6 0.4 0  5.8 0.4 0  6 0.4 0  6.2 0.4 0  6.4 0.4 0  6.6 0.4 0  6.8 0.4 0  7 0.4 0  7.2 0.4 0  7.4 0.4 0  7.6 0.4 0  7.8 0.4 0  8 0.4 0  8.199999999999999 0.4 0  8.4 0.4 0  8.6 0.4 0  8.800000000000001 0.4 0  9 0.4 0  9.199999999999999 0.4 0  9.4 0.4 0  9.6 0.4 0  9.800000000000001 0.4 0  10 0.4 0  0 0.6 0  0.2 0.6 0  0.4 0.6 0  0.6 0.6 0  0.8 0.6 0  1 0.6 0  1.2 0.6 0  1.4 0.6 0  1.6 0.6 0  1.8 0.6 0  2 0.6 0  2.2 0.6 0  2.4 0.6 0  2.6 0.6 0  2.8 0.6 0  3 0.6 0  3.2 0.6 0  3.4 0.6 0  3.6 0.6 0  3.8 0.6 0  4 0.6 0  4.2 0.6 0  4.4 0.6 0  4.6 0.6 0  4.8 0.6 0  5 0.6 0  5.2 0.6 0  5.4 0.6 0  5.6 0.6 0  5.8 0.6 0  6 0.6 0  6.2 0.6 0  6.4 0.6 0  6.6 0.6 0  6.8 0.6 0  7 0.6 0  7.2 0.6 0  7.4 0.6 0  7.6 0.6 0  7.8 0.6 0  8 0.6 0  8.199999999999999 0.6 0  8.4 0.6 0  8.6 0.6 0  8.800000000000001 0.6 0  9 0.6 0  9.199999999999999 0.6 0  9.4 0.6 0  9.6 0.6 0  9.800000000000001 0.6 0  10 0.6 0  0 0.8 0  0.2 0.8 0  0.4 0.8 0  0.6 0.8 0  0.8 0.8 0  1 0.8 0  1.2 0.8 0  1.4 0.8 0  1.6 0.8 0  1.8 0.8 0  2 0.8 0  2.2 0.8 0  2.4 0.8 0  2.6 0.8 0  2.8 0.8 0  3 0.8 0  3.2 0.8 0  3.4 0.8 0  3.6 0.8 0  3.8 0.8 0  4 0.8 0  4.2 0.8 0  4.4 0.8 0  4.6 0.8 0  4.8 0.8 0  5 0.8 0  5.2 0.8 0  5.4 0.8 0  5.6 0.8 0  5.8 0.8 0  6 0.8 0  6.2 0.8 0  6.4 0.8 0  6.6 0.8 0  6.8 0.8 0  7 0.8 0  7.2 0.8 0  7.4 0.8 0  7.6 0.8 0  7.8 0.8 0  8 0.8 0  8.199999999999999 0.8 0  8.4 0.8 0  8.6 0.8 0  8.800000000000001 0.8 0  9 0.8 0  9.199999999999999 0.8 0  9.4 0.8 0  9.6 0.8 0  9.800000000000001 0.8 0  10 0.8 0  0 1 0  0.2 1 0  0.4 1 0  0.6 1 0  0.8 1 0  1 1 0  1.2 1 0  1.4 1 0  1.6 1 0  1.8 1 0  2 1 0  2.2 1 0  2.4 1 0  2.6 1 0  2.8 1 0  3 1 0  3.2 1 0  3.4 1 0  3.6 1 0  3.8 1 0  4 1 0  4.2 1 0  4.4 1 0  4.6 1 0  4.8 1 0  5 1 0  5.2 1 0  5.4 1 0  5.6 1 0  5.8 1 0  6 1 0  6.2 1 0  6.4 1 0  6.6 1 0  6.8 1 0  7 1 0  7.2 1 0  7.4 1 0  7.6 1 0  7.8 1 0  8 1 0  8.199999999999999 1 0  8.4 1 0  8.6 1 0  8.800000000000001 1 0  9 1 0  9.199999999999999 1 0  9.4 1 0  9.6 1 0  9.800000000000001 1 0  10 1 0  0 1.2 0  0.2 1.2 0  0.4 1.2 0  0.6 1.2 0  0.8 1.2 0  1 1.2 0  1.2 1.2 0  1.4 1.2 0  1.6 1.2 0  1.8 1.2 0  2 1.2 0  2.2 1.2 0  2.4 1.2 0  2.6 1.2 0  2.8 1.2 0  3 1.2 0  3.2 1.2 0  3.4 1.2 0  3.6 1.2 0  3.8 1.2 0  4 1.2 0  4.2 1.2 0  4.4 1.2 0  4.6 1.2 0  4.8 1.2 0  5 1.2 0  5.2 1.2 0  5.4 1.2 0  5.6 1.2 0  5.8 1.2 0  6 1.2 0  6.2 1.2 0  6.4 1.2 0  6.6 1.2 0  6.8 1.2 0  7 1.2 0  7.2 1.2 0  7.4 1.2 0  7.6 1.2 0  7.8 1.2 0  8 1.2 0  8.199999999999999 1.2 0  8.4 1.2 0  8.6 1.2 0  8.800000000000001 1.2 0  9 1.2 0  9.199999999999999 1.2 0  9.4 1.2 0  9.6 1.2 0  9.800000000000001 1.2 0  10 1.2 0  0 1.4 0  0.2 1.4 0  0.4 1.4 0  0.6 1.4 0  0.8 1.4 0  1 1.4 0  1.2 1.4 0  1.4 1.4 0  1.6 1.4 0  1.8 1.4 0  2 1.4 0  2.2 1.4 0  2.4 1.4 0  2.6 1.4 0  2.8 1.4 0  3 1.4 0  3.2 1.4 0  3.4 1.4 0  3.6 1.4 0  3.8 1.4 0  4 1.4 0  4.2 1.4 0  4.4 1.4 0  4.6 1.4 0  4.8 1.4 0  5 1.4 0  5.2 1.4 0  5.4 1.4 0  5.6 1.4 0  5.8 1.4 0  6 1.4 0  6.2 1.4 0  6.4 1.4 0  6.6 1.4 0  6.8 1.4 0  7 1.4 0  7.2 1.4 0  7.4 1.4 0  7.6 1.4 0  7.8 1.4 0  8 1.4 0  8.199999999999999 1.4 0  8.4 1.4 0  8.6 1.4 0  8.800000000000001 1.4 0  9 1.4 0  9.199999999999999 1.4 0  9.4 1.4 0  9.6 1.4 0  9.800000000000001 1.4 0  10 1.4 0  0 1.6 0  0.2 1.6 0  0.4 1.6 0  0.6 1.6 0  0.8 1.6 0  1 1.6 0  1.2 1.6 0  1.4 1.6 0  1.6 1.6 0  1.8 1.6 0  2 1.6 0  2.2 1.6 0  2.4 1.6 0  2.6 1.6 0  2.8 1.6 0  3 1.6 0  3.2 1.6 0  3.4 1.6 0  3.6 1.6 0  3.8 1.6 0  4 1.6 0  4.2 1.6 0  4.4 1.6 0  4.6 1.6 0  4.8 1.6 0  5 1.6 0  5.2 1.6 0  5.4 1.6 0  5.6 1.6 0  5.8 1.6 0  6 1.6 0  6.2 1.6 0  6.4 1.6 0  6.6 1.6 0  6.8 1.6 0  7 1.6 0  7.2 1.6 0  7.4 1.6 0  7.6 1.6 0  7.8 1.6 0  8 1.6 0  8.199999999999999 1.6 0  8.4 1.6 0  8.6 1.6 0  8.800000000000001 1.6 0  9 1.6 0  9.199999999999999 1.6 0  9.4 1.6 0  9.6 1.6 0  9.800000000000001 1.6 0  10 1.6 0  0 1.8 0  0.2 1.8 0  0.4 1.8 0  0.6 1.8 0  0.8 1.8 0  1 1.8 0  1.2 1.8 0  1.4 1.8 0  1.6 1.8 0  1.8 1.8 0  2 1.8 0  2.2 1.8 0  2.4 1.8 0  2.6 1.8 0  2.8 1.8 0  3 1.8 0  3.2 1.8 0  3.4 1.8 0  3.6 1.8 0  3.8 1.8 0  4 1.8 0  4.2 1.8 0  4.4 1.8 0  4.6 1.8 0  4.8 1.8 0  5 1.8 0  5.2 1.8 0  5.4 1.8 0  5.6 1.8 0  5.8 1.8 0  6 1.8 0  6.2 1.8 0  6.4 1.8 0  6.6 1.8 0  6.8 1.8 0  7 1.8 0  7.2 1.8 0  7.4 1.8 0  7.6 1.8 0  7.8 1.8 0  8 1.8 0  8.199999999999999 1.8 0  8.4 1.8 0  8.6 1.8 0  8.800000000000001 1.8 0  9 1.8 0  9.199999999999999 1.8 0  9.4 1.8 0  9.6 1.8 0  9.800000000000001 1.8 0  10 1.8 0  0 2 0  0.2 2 0  0.4 2 0  0.6 2 0  0.8 2 0  1 2 0  1.2 2 0  1.4 2 0  1.6 2 0  1.8 2 0  2 2 0  2.2 2 0  2.4 2 0  2.6 2 0  2.8 2 0  3 2 0  3.2 2 0  3.4 2 0  3.6 2 0  3.8 2 0  4 2 0  4.2 2 0  4.4 2 0  4.6 2 0  4.8 2 0  5 2 0  5.2 2 0  5.4 2 0  5.6 2 0  5.8 2 0  6 2 0  6.2 2 0  6.4 2 0  6.6 2 0  6.8 2 0  7 2 0  7.2 2 0  7.4 2 0  7.6 2 0  7.8 2 0  8 2 0  8.199999999999999 2 0  8.4 2 0  8.6 2 0  8.800000000000001 2 0  9 2 0  9.199999999999999 2 0  9.4 2 0  9.6 2 0  9.800000000000001 2 0  10 2 0  0 2.2 0  0.2 2.2 0  0.4 2.2 0  0.6 2.2 0  0.8 2.2 0  1 2.2 0  1.2 2.2 0  1.4 2.2 0  1.6 2.2 0  1.8 2.2 0  2 2.2 0  2.2 2.2 0  2.4 2.2 0  2.6 2.2 0  2.8 2.2 0  3 2.2 0  3.2 2.2 0  3.4 2.2 0  3.6 2.2 0  3.8 2.2 0  4 2.2 0  4.2 2.2 0  4.4 2.2 0  4.6 2.2 0  4.8 2.2 0  5 2.2 0  5.2 2.2 0  5.4 2.2 0  5.6 2.2 0  5.8 2.2 0  6 2.2 0  6.2 2.2 0  6.4 2.2 0  6.6 2.2 0  6.8 2.2 0  7 2.2 0  7.2 2.2 0  7.4 2.2 0  7.6 2.2 0  7.8 2.2 0  8 2.2 0  8.199999999999999 2.2 0  8.4 2.2 0  8.6 2.2 0  8.800000000000001 2.2 0  9 2.2 0  9.199999999999999 2.2 0  9.4 2.2 0  9.6 2.2 0  9.800000000000001 2.2 0  10 2.2 0  0 2.4 0  0.2 2.4 0  0.4 2.4 0  0.6 2.4 0  0.8 2.4 0  1 2.4 0  1.2 2.4 0  1.4 2.4 0  1.6 2.4 0  1.8 2.4 0  2 2.4 0  2.2 2.4 0  2.4 2.4 0  2.6 2.4 0  2.8 2.4 0  3 2.4 0  3.2 2.4 0  3.4 2.4 0  3.6 2.4 0  3.8 2.4 0  4 2.4 0  4.2 2.4 0  4.4 2.4 0  4.6 2.4 0  4.8 2.4 0  5 2.4 0  5.2 2.4 0  5.4 2.4 0  5.6 2.4 0  5.8 2.4 0  6 2.4 0  6.2 2.4 0  6.4 2.4 0  6.6 2.4 0  6.8 2.4 0  7 2.4 0  7.2 2.4 0  7.4 2.4 0  7.6 2.4 0  7.8 2.4 0  8 2.4 0  8.199999999999999 2.4 0  8.4 2.4 0  8.6 2.4 0  8.800000000000001 2.4 0  9 2.4 0  9.199999999999999 2.4 0  9.4 2.4 0  9.6 2.4 0  9.800000000000001 2.4 0  10 2.4 0  0 2.6 0  0.2 2.6 0  0.4 2.6 0  0.6 2.6 0  0.8 2.6 0  1 2.6 0  1.2 2.6 0  1.4 2.6 0  1.6 2.6 0  1.8 2.6 0  2 2.6 0  2.2 2.6 0  2.4 2.6 0  2.6 2.6 0  2.8 2.6 0  3 2.6 0  3.2 2.6 0  3.4 2.6 0  3.6 2.6 0  3.8 2.6 0  4 2.6 0  4.2 2.6 0  4.4 2.6 0  4.6 2.6 0  4.8 2.6 0  5 2.6 0  5.2 2.6 0  5.4 2.6 0  5.6 2.6 0  5.8 2.6 0  6 2.6 0  6.2 2.6 0  6.4 2.6 0  6.6 2.6 0  6.8 2.6 0  7 2.6 0  7.2 2.6 0  7.4 2.6 0  7.6 2.6 0  7.8 2.6 0  8 2.6 0  8.199999999999999 2.6 0  8.4 2.6 0  8.6 2.6 0  8.800000000000001 2.6 0  9 2.6 0  9.199999999999999 2.6 0  9.4 2.6 0  9.6 2.6 0  9.800000000000001 2.6 0  10 2.6 0  0 2.8 0  0.2 2.8 0  0.4 2.8 0  0.6 2.8 0  0.8 2.8 0  1 2.8 0  1.2 2.8 0  1.4 2.8 0  1.6 2.8 0  1.8 2.8 0  2 2.8 0  2.2 2.8 0  2.4 2.8 0  2.6 2.8 0  2.8 2.8 0  3 2.8 0  3.2 2.8 0  3.4 2.8 0  3.6 2.8 0  3.8 2.8 0  4 2.8 0  4.2 2.8 0  4.4 2.8 0  4.6 2.8 0  4.8 2.8 0  5 2.8 0  5.2 2.8 0  5.4 2.8 0  5.6 2.8 0  5.8 2.8 0  6 2.8 0  6.2 2.8 0  6.4 2.8 0  6.6 2.8 0  6.8 2.8 0  7 2.8 0  7.2 2.8 0  7.4 2.8 0  7.6 2.8 0  7.8 2.8 0  8 2.8 0  8.199999999999999 2.8 0  8.4 2.8 0  8.6 2.8 0  8.800000000000001 2.8 0  9 2.8 0  9.199999999999999 2.8 0  9.4 2.8 0  9.6 2.8 0  9.800000000000001 2.8 0  10 2.8 0  0 3 0  0.2 3 0  0.4 3 0  0.6 3 0  0.8 3 0  1 3 0  1.2 3 0  1.4 3 0  1.6 3 0  1.8 3 0  2 3 0  2.2 3 0  2.4 3 0  2.6 3 0  2.8 3 0  3 3 0  3.2 3 0  3.4 3 0  3.6 3 0  3.8 3 0  4 3 0  4.2 3 0  4.4 3 0  4.6 3 0  4.8 3 0  5 3 0  5.2 3 0  5.4 3 0  5.6 3 0  5.8 3 0  6 3 0  6.2 3 0  6.4 3 0  6.6 3 0  6.8 3 0  7 3 0  7.2 3 0  7.4 3 0  7.6 3 0  7.8 3 0  8 3 0  8.199999999999999 3 0  8.4 3 0  8.6 3 0  8.800000000000001 3 0  9 3 0  9.199999999999999 3 0  9.4 3 0  9.6 3 0  9.800000000000001 3 0  10 3 0  0 3.2 0  0.2 3.2 0  0.4 3.2 0  0.6 3.2 0  0.8 3.2 0  1 3.2 0  1.2 3.2 0  1.4 3.2 0  1.6 3.2 0  1.8 3.2 0  2 3.2 0  2.2 3.2 0  2.4 3.2 0  2.6 3.2 0  2.8 3.2 0  3 3.2 0  3.2 3.2 0  3.4 3.2 0  3.6 3.2 0  3.8 3.2 0  4 3.2 0  4.2 3.2 0  4.4 3.2 0  4.6 3.2 0  4.8 3.2 0  5 3.2 0  5.2 3.2 0  5.4 3.2 0  5.6 3.2 0  5.8 3.2 0  6 3.2 0  6.2 3.2 0  6.4 3.2 0  6.6 3.2 0  6.8 3.2 0  7 3.2 0  7.2 3.2 0  7.4 3.2 0  7.6 3.2 0  7.8 3.2 0  8 3.2 0  8.199999999999999 3.2 0  8.4 3.2 0  8.6 3.2 0  8.800000000000001 3.2 0  9 3.2 0  9.199999999999999 3.2 0  9.4 3.2 0  9.6 3.2 0  9.800000000000001 3.2 0  10 3.2 0  0 3.4 0  0.2 3.4 0  0.4 3.4 0  0.6 3.4 0  0.8 3.4 0  1 
[...]
<PointData  Scalars="f_6"> 
<DataArray  type="Float64"  Name="f_6"  format="ascii">2.1198378130557623e-03  9.3393145089019410e-03  9.4910986423755329e-03  9.5007800355374292e-03  9.5008641391142231e-03  9.5008676120562022e-03  9.5008676197096322e-03  9.5008676217074265e-03  9.5008676217212488e-03  9.5008676217224735e-03  9.5008676217224874e-03  9.5008676217224787e-03  9.5008676217224839e-03  9.5008676217224822e-03  9.5008676217224804e-03  9.5008676217224891e-03  9.5008676217224787e-03  9.5008676217224856e-03  9.5008676217224839e-03  9.5008676217224804e-03  9.5008676217224839e-03  9.5008676217224891e-03  9.5008676217224822e-03  9.5008676217224787e-03  9.5008676217224874e-03  9.5008676217224787e-03  9.5008676217224891e-03  9.5008676217224804e-03  9.5008676217224804e-03  9.5008676217224874e-03  9.5008676217224787e-03  9.5008676217224891e-03  9.5008676217224804e-03  9.5008676217224804e-03  9.5008676217224874e-03  9.5008676217224787e-03  9.5008676217224891e-03  9.5008676217224804e-03  9.5008676217224787e-03  9.5008676217224874e-03  9.5008676217224718e-03  9.5008676217224874e-03  9.5008676217212401e-03  9.5008676217074144e-03  9.5008676197096548e-03  9.5008676120561658e-03  9.5008641391142422e-03  9.5007800355374379e-03  9.4910986423755225e-03  9.3393145089019185e-03  2.1198378130558044e-03  -2.1342782008749062e-04  3.8320831769188084e-04  3.4293564179788691e-04  3.3504487191411898e-04  3.3451392497043113e-04  3.3448938174297961e-04  3.3448838638548331e-04  3.3448835062425568e-04  3.3448834945462054e-04  3.3448834942014047e-04  3.3448834941921554e-04  3.3448834941918865e-04  3.3448834941919169e-04  3.3448834941919120e-04  3.3448834941918795e-04  3.3448834941919185e-04  3.3448834941918816e-04  3.3448834941919125e-04  3.3448834941919163e-04  3.3448834941918784e-04  3.3448834941918909e-04  3.3448834941919315e-04  3.3448834941919207e-04  3.3448834941919190e-04  3.3448834941919266e-04  3.3448834941918562e-04  3.3448834941919261e-04  3.3448834941919223e-04  3.3448834941919180e-04  3.3448834941919239e-04  3.3448834941918551e-04  3.3448834941919255e-04  3.3448834941919239e-04  3.3448834941919190e-04  3.3448834941919250e-04  3.3448834941918551e-04  3.3448834941919277e-04  3.3448834941919201e-04  3.3448834941919163e-04  3.3448834941919321e-04  3.3448834941920903e-04  3.3448834942014991e-04  3.3448834945461366e-04  3.3448835062424933e-04  3.3448838638550793e-04  3.3448938174297712e-04  3.3451392497044669e-04  3.3504487191411317e-04  3.4293564179784506e-04  3.8320831769185834e-04  -2.1342782008740754e-04  2.1614287545301419e-06  9.7019648732848101e-06  1.5351541313676354e-05  1.6143413055711401e-05  1.6185544205669411e-05  1.6188183884173298e-05  1.6188301706583861e-05  1.6188306307330775e-05  1.6188306456849448e-05  1.6188306461148693e-05  1.6188306461256882e-05  1.6188306461259512e-05  1.6188306461258976e-05  1.6188306461258814e-05  1.6188306461260362e-05  1.6188306461259688e-05  1.6188306461259820e-05  1.6188306461258837e-05  1.6188306461258620e-05  1.6188306461260121e-05  1.6188306461259921e-05  1.6188306461260687e-05  1.6188306461261229e-05  1.6188306461261751e-05  1.6188306461261162e-05  1.6188306461260765e-05  1.6188306461260708e-05  1.6188306461260975e-05  1.6188306461261517e-05  1.6188306461261246e-05  1.6188306461260731e-05  1.6188306461260477e-05  1.6188306461261168e-05  1.6188306461261534e-05  1.6188306461261307e-05  1.6188306461260711e-05  1.6188306461260636e-05  1.6188306461260965e-05  1.6188306461261531e-05  1.6188306461261128e-05  1.6188306461258177e-05  1.6188306461148371e-05  1.6188306456855157e-05  1.6188306307328570e-05  1.6188301706590563e-05  1.6188183884193813e-05  1.6185544205676476e-05  1.6143413055692932e-05  1.5351541313655923e-05  9.7019648733427133e-06  2.1614287546135755e-06  -4.4399783581409914e-08  1.0032775993754594e-07  -8.3583857379224575e-09  -3.4527222055385704e-08  -3.7595938032694454e-08  -3.7775364584002201e-08  -3.7783572770684599e-08  -3.7783876699164185e-08  -3.7783885987819143e-08  -3.7783886243135778e-08  -3.7783886249163946e-08  -3.7783886249797096e-08  -3.7783886248973013e-08  -3.7783886249441435e-08  -3.7783886249129191e-08  -3.7783886249502137e-08  -3.7783886249701686e-08  -3.7783886248704146e-08  -3.7783886249285296e-08  -3.7783886249241906e-08  -3.7783886250317479e-08  -3.7783886250065990e-08  -3.7783886250317452e-08  -3.7783886250421505e-08  -3.7783886250274135e-08  -3.7783886249554163e-08  -3.7783886250048592e-08  -3.7783886250213347e-08  -3.7783886250464856e-08  -3.7783886250334843e-08  -3.7783886249545481e-08  -3.7783886250039910e-08  -3.7783886250291406e-08  -3.7783886250196009e-08  -3.7783886250248115e-08  -3.7783886249476084e-08  -3.7783886250196062e-08  -3.7783886250456313e-08  -3.7783886250378148e-08  -3.7783886250317413e-08  -3.7783886249736394e-08  -3.7783886244679641e-08  -3.7783885989536469e-08  -3.7783876697793778e-08  -3.7783572777449997e-08  -3.7775364576516931e-08  -3.7595938055766407e-08  -3.4527222078197288e-08  -8.3583857112857379e-09  1.0032775994991452e-07  -4.4399783487199264e-08  2.8110877218438098e-09  6.0773846867305560e-10  4.6288897631412141e-09  6.0540575825066017e-09  6.1913464116658508e-09  6.1992607950939895e-09  6.1996322093735308e-09  6.1996445538132357e-09  6.1996449435535576e-09  6.1996449502235714e-09  6.1996449496511137e-09  6.1996449494776406e-09  6.1996449498332572e-09  6.1996449497378460e-09  6.1996449499199920e-09  6.1996449499286675e-09  6.1996449492868192e-09  6.1996449497725405e-09  6.1996449498679500e-09  6.1996449497031516e-09  6.1996449498853025e-09  6.1996449506485777e-09  6.1996449509781744e-09  6.1996449505705142e-09  6.1996449502062205e-09  6.1996449498332572e-09  6.1996449507873571e-09  6.1996449510041950e-09  6.1996449506312292e-09  6.1996449503363244e-09  6.1996449498766254e-09  6.1996449507092944e-09  6.1996449510388895e-09  6.1996449504837776e-09  6.1996449503016317e-09  6.1996449498072357e-09  6.1996449508394000e-09  6.1996449510822561e-09  6.1996449505011261e-09  6.1996449504577579e-09  6.1996449502582626e-09  6.1996449491220208e-09  6.1996449404570756e-09  6.1996445482274298e-09  6.1996322045770206e-09  6.1992607740344476e-09  6.1913464028274392e-09  6.0540576260047909e-09  4.6288897820583757e-09  6.0773846365970467e-10  2.8110877922584057e-09  -3.4179441384379204e-11  -1.3795483505552056e-11  -1.3304797960404792e-10  -1.7792616791370563e-10  -1.8246641885800995e-10  -1.8276000826426823e-10  -1.8277127137276974e-10  -1.8277169880863415e-10  -1.8277171264305389e-10  -1.8277171384868669e-10  -1.8277171285989435e-10  -1.8277171294663057e-10  -1.8277171231345649e-10  -1.8277171240886626e-10  -1.8277171242621346e-10  -1.8277171297265145e-10  -1.8277171301601950e-10  -1.8277171228743563e-10  -1.8277171244356073e-10  -1.8277171238284541e-10  -1.8277171345837392e-10  -1.8277171328490161e-10  -1.8277171373592965e-10  -1.8277171199253266e-10  -1.8277171312010296e-10  -1.8277171392674933e-10  -1.8277171391807567e-10  -1.8277171370123524e-10  -1.8277171220069946e-10  -1.8277171312877654e-10  -1.8277171384001311e-10  -1.8277171375327697e-10  -1.8277171369256160e-10  -1.8277171200987986e-10  -1.8277171308540845e-10  -1.8277171382266589e-10  -1.8277171379664504e-10  -1.8277171373592978e-10  -1.8277171220069949e-10  -1.8277171319816539e-10  -1.8277171323285985e-10  -1.8277171250427602e-10  -1.8277171170630328e-10  -1.8277170266839393e-10  -1.8277126028788673e-10  -1.8276002088438156e-10  -1.8246641434772887e-10  -1.7792615015013728e-10  -1.3304795981085309e-10  -1.3795480244271896e-11  -3.4179351133221966e-11  1.5420267016411085e-12  8.9842324552114018e-13  4.3932887362763133e-12  5.6573571608625762e-12  5.8052966774024819e-12  5.8122639600560730e-12  5.8126532146568477e-12  5.8126525554619254e-12  5.8126468135272231e-12  5.8126446277756413e-12  5.8126455645263192e-12  5.8126452436024761e-12  5.8126471257774482e-12  5.8126461630059204e-12  5.8126471951663865e-12  5.8126469176106309e-12  5.8126455038109981e-12  5.8126470477148911e-12  5.8126460068808086e-12  5.8126471084302114e-12  5.8126462844365626e-12  5.8126452089080073e-12  5.8126440986849833e-12  5.8126449573731016e-12  5.8126453997275870e-12  5.8126462410684751e-12  5.8126452869705628e-12  5.8126440466432785e-12  5.8126450614565095e-12  5.8126453043177955e-12  5.8126462497420931e-12  5.8126452609497104e-12  5.8126441680739232e-12  5.8126450180884228e-12  5.8126452782969456e-12  5.8126463104574134e-12  5.8126454344220582e-12  5.8126442027683895e-12  5.8126450007411868e-12  5.8126451221718314e-12  5.8126445063449991e-12  5.8126448359424586e-12  5.8126441594003003e-12  5.8126426848853496e-12  5.8126325020585446e-12  5.8122865548293499e-12  5.8053011963571343e-12  5.6573574037238615e-12  4.3932868541013412e-12  8.9840685238429178e-13  1.5421226925646516e-12  -2.1806675389035581e-14  -3.7455958473708854e-14  -1.3183364122593133e-13  -1.6955389349482260e-13  -1.7247489027261151e-13  -1.7269454963275700e-13  -1.7268342138165859e-13  -1.7266407054128412e-13  -1.7264412122131039e-13  -1.7264387836002373e-13  -1.7264405183237129e-13  -1.7264314977616382e-13  -1.7264217833101723e-13  -1.7264246456039078e-13  -1.7264219567825203e-13  -1.7264213496293029e-13  -1.7264296763019883e-13  -1.7264242986592128e-13  -1.7264283752593811e-13  -1.7264212628931298e-13  -1.7264275078976433e-13  -1.7264329722765926e-13  -1.7264342733191996e-13  -1.7264315844978118e-13  -1.7264240384506919e-13  -1.7264181403908729e-13  -1.7264316712339852e-13  -1.7264343600553732e-13  -1.7264297630381619e-13  -1.7264249925486033e-13  -1.7264182271270467e-13  -1.7264319314425066e-13  -1.7264347070000685e-13  -1.7264313242892907e-13  -1.7264262068550363e-13  -1.7264191812249582e-13  -1.7264337529021566e-13  -1.7264365284597187e-13  -1.7264307171360740e-13  -1.7264225639357369e-13  -1.7264233445613011e-13  -1.7264323651233757e-13  -1.7264415591577987e-13  -1.7267527685493887e-13  -1.7269206030456895e-13  -1.7268018612237596e-13  -1.7247013713028720e-13  -1.6953713606604476e-13  -1.3184758840267820e-13  -3.7479715511712375e-14  -2.1656552419424543e-14  6.2625685887107715e-16  1.2229713769462693e-15  3.8397583723703836e-15  4.5107320656434520e-15  4.6051964325277697e-15  4.6039907997119655e-15  4.6185971713796920e-15  4.6198895403692921e-15  4.6190568731008240e-15  4.6203665893251867e-15  4.6212426246805560e-15  4.6187186020230098e-15  4.6195165748219576e-15  4.6200890335690307e-15  4.6182415530671145e-15  4.6193951441786398e-15  4.6186405394665900e-15  4.6195252484393369e-15  4.6201150544211709e-15  4.6180680807195169e-15  4.6182328794497368e-15  4.6180941015716564e-15  4.6182415530671160e-15  4.6179032819892987e-15  4.6178946083719194e-15  4.6175389900593443e-15  4.6182849211540148e-15  4.6183716573278156e-15  4.6180333862499967e-15  4.6179986917804771e-15  4.6175389900593451e-15  4.6183716573278132e-15  4.6185191088232737e-15  4.6179379764588190e-15  4.6179986917804779e-15  4.6174609275029260e-15  4.6183369628582945e-15  4.6181634905106978e-15  4.6179639973109592e-15  4.6181374696585560e-15  4.6180420598673783e-15  4.6174956219724447e-15  4.6175042955898248e-15  4.6130807507260844e-15  4.6086832267144842e-15  4.6178425666676429e-15  4.6114934787455657e-15  4.5179832097730356e-15  3.8335740831785262e-15  1.1915208403268100e-15  7.7701083414649650e-16  -1.6364947591496202e-16  -2.0918163035066325e-16  -2.8699265186560301e-16  -3.2248509418408840e-16  -3.2273662908810500e-16  -3.2759385482084004e-16  -3.1219818397154602e-16  -3.1046346049556916e-16  -3.0853791743723493e-16  -3.0501642878100206e-16  -3.0579705434519170e-16  -3.0643022841392316e-16  -3.0729759015191151e-16  -3.0610063095348752e-16  -3.0796545869016261e-16  -3.0617869350990640e-16  -3.0644757564868276e-16  -3.0719350674335290e-16  -3.0606593648396801e-16  -3.0839913955915672e-16  -3.0801750039444197e-16  -3.0986498089635717e-16  -3.0990834898325650e-16  -3.0975222387041873e-16  -3.0975222387041868e-16  -3.0994304345277620e-16  -3.0973487663565903e-16  -3.0945732087950254e-16  -3.0971752940089922e-16  -3.0983896004421744e-16  -3.0997773792229571e-16  -3.0975222387041878e-16  -3.0952670981854155e-16  -3.0959609875758086e-16  -3.0999508515705536e-16  -3.1014253665251350e-16  -3.0979559195731811e-16  -3.0981293919207786e-16  -3.0963946684448019e-16  -3.0962211960972039e-16  -3.0932721661880450e-16  -3.1015121026989328e-16  -3.0911904980168708e-16  -3.1537272793258350e-16  -3.2015189110889960e-16  -3.1221553120630577e-16  -3.1674315947860511e-16  -3.1552885304542147e-16  -2.9603923479282202e-16  -2.4136075083003304e-16  -1.2123548692732911e-17  -1.5206585990412690e-16  -1.6662886348495222e-16  -1.8041991511896781e-16  -1.9640539195009407e-16  -1.9399412631848631e-16  -1.9891206737288060e-16  -1.8436641102681516e-16  -1.8411487612279838e-16  -1.8031583171040920e-16  -1.7744486435766758e-16  -1.7755762138360610e-16  -1.8141738111765458e-16  -1.7932703932910243e-16  -1.8205922880376586e-16  -1.8094900577914083e-16  -1.7910152527722555e-16  -1.8162554793477173e-16  -1.7922295592054385e-16  -1.8190310369092802e-16  -1.8081022790106264e-16  -1.7958724785049894e-16  -1.8042858873634781e-16  -1.8048930405800685e-16  -1.8027246362350977e-16  -1.8041991511896784e-16  -1.7980408828499611e-16  -1.8041124150158794e-16  -1.8043726235372757e-16  -1.8048063044062697e-16  -1.8039389426682816e-16  -1.7992551892831443e-16  -1.8042858873634774e-16  -1.8041991511896781e-16  -1.8055869299704598e-16  -1.8074083896202363e-16  -1.8000358148473339e-16  -1.8041124150158799e-16  -1.8020307468447069e-16  -1.8063675555346496e-16  -1.8025511638875004e-16  -1.8262301393345840e-16  -1.8404548718375930e-16  -1.8012501212805173e-16  -1.8643940558060738e-16  -1.9248491689438655e-16  -1.8408018165327880e-16  -1.8925833122906959e-16  -1.8637869025894820e-16  -1.8957925507212536e-16  -1.9822685159986964e-16  1.4116312285761267e-18  -1.5133293923552675e-16  -1.6769571842267785e-16  -1.8661287792820498e-16  -2.0259835475933129e-16  -1.9833093500842833e-16  -2.0358714714063810e-16  -1.8739350349239452e-16  -1.8676900304104292e-16  -1.8388936207092143e-16  -1.7889335846010831e-16  -1.7587493961190867e-16  -1.8178167304760958e-16  -1.8025511638875002e-16  -1.7989082445879500e-16  -1.8237147902944177e-16  -1.7908417804246563e-16  -1.8214596497756470e-16  -1.8032450532778913e-16  -1.7984745637189554e-16  -1.8316077821101119e-16  -1.8037654703206846e-16  -1.8032450532778915e-16  -1.8146074920455399e-16  -1.8133931856123555e-16  -1.8192912454306764e-16  -1.8144340196979416e-16  -1.8081890151844256e-16  -1.8193779816044762e-16  -1.8140870750027471e-16  -1.8154748537835275e-16  -1.8165156878691136e-16  -1.8094900577914083e-16  -1.8185106198664881e-16  -1.8128727685695624e-16  -1.8149544367407344e-16  -1.8151279090883322e-16  -1.8068012364036437e-16  -1.8145207558717409e-16  -1.8135666579599535e-16  -1.8173830496071029e-16  -1.8416691782707771e-16  -1.8584092598139539e-16  -1.8383732036664215e-16  -1.9105377002670576e-16  -1.9662223238459125e-16  -1.8788789968304796e-16  -1.9362116077115129e-16  -1.9057672107081198e-16  -1.9382932758826864e-16  -1.9803603201751227e-16  9.9529759434169265e-19  -1.5286383270307627e-16  -1.6826817716975029e-16  -1.8440977911371451e-16  -2.0013504742344422e-16  -1.9824419883462957e-16  -2.0257233390719161e-16  -1.8847770566488013e-16  -1.8813943458706464e-16  -1.8391538292306106e-16  -1.8146942282193376e-16  -1.8293526415913419e-16  -1.8429702208777595e-16  -1.8470468210463048e-16  -1.8609246088541197e-16  -1.8488682806960812e-16  -1.8486080721746849e-16  -1.8445314720061390e-16  -1.8466131401773097e-16  -1.8596235662471370e-16  -1.8496489062602711e-16  -1.8248423605538024e-16  -1.8221535391660390e-16  -1.8258831946393887e-16  -1.8279648628105610e-16  -1.8251025690751989e-16  -1.8207657603852569e-16  -1.8213729136018484e-16  -1.8244086796848090e-16  -1.8302200033293302e-16  -1.8289189607223478e-16  -1.8237147902944175e-16  -1.8211127050804524e-16  -1.8251025690751994e-16  -1.8283118075057565e-16  -1.8270107648987734e-16  -1.8232811094254237e-16  -1.8194647177782749e-16  -1.8238882626420157e-16  -1.8297863224603357e-16  -1.8284852798533535e-16  -1.8447916805275355e-16  -1.8663889878034473e-16  -1.8158217984787233e-16  -1.8852107375177951e-16  -1.9623191960249640e-16  -1.8623991238086998e-16  -1.9264971562460442e-16  -1.8891138653387435e-16  -1.9186041644303488e-16  -1.9943248441567356e-16  8.7169854667834663e-19  -1.4840342496547090e-16  -1.7119985984415111e-16  -1.8499958509554654e-16  -2.0213865303819741e-16  -1.9773245540921633e-16  -2.0329224414972217e-16  -1.8694247538864052e-16  -1.8657818345868547e-16  -1.8264036116821810e-16  -1.7950918529408003e-16  -1.7912754612936513e-16  -1.8222402753398373e-16  -1.8020307468447071e-16  -1.8154748537835272e-16  -1.8194647177782754e-16  -1.8025511638875007e-16  -1.8231076370778254e-16  -1.8009031765853227e-16  -1.8145207558717396e-16  -1.8229341647302284e-16  -1.8121788791791723e-16  -1.8158217984787233e-16  -1.8152146452621310e-16  -1.8205055518638613e-16  -1.8304802118507270e-16  -1.8323016715005018e-16  -1.8201586071686655e-16  -1.8140003388289471e-16  -1.8225872200350333e-16  -1.8277046542891637e-16  -1.8279648628105602e-16  -1.8177299943022980e-16  -1.8156483261311248e-16  -1.8208524965590549e-16  -1.8294393777651411e-16  -1.8293526415913414e-16  -1.8153881176097300e-16  -1.8140003388289463e-16  -1.8221535391660385e-16  -1.8303067395031293e-16  -1.8495621700864713e-16  -1.8585827321615504e-16  -1.8368119525380413e-16  -1.9090631853124774e-16  -1.9630998215891541e-16  -1.8764503839641128e-16  -1.9340432033665424e-16  -1.9059406830557175e-16  -1.9445382803962014e-16  -2.0102843001357237e-16  2.7321894746634707e-18  -1.5151725360484927e-16  -1.7204120072999981e-16  -1.8351639652358643e-16  -2.0049933935339934e-16  -1.9846971288650647e-16  -2.0279784795906868e-16  -1.8845168481274040e-16  -1.8785320521352838e-16  -1.8284852798533533e-16  -1.8192912454306767e-16  -1.8491284892174785e-16  -1.8482611274794887e-16  -1.8197249262996707e-16  -1.8685573921484176e-16  -1.8248423605538031e-16  -1.8387201483616168e-16  -1.8468733486987063e-16  -1.8173830496071020e-16  -1.8688176006698136e-16  -1.8207657603852571e-16  -1.8169493687381091e-16  -1.8198983986472683e-16  -1.8113115174411825e-16  -1.8238015264682167e-16  -1.8236280541206192e-16  -1.8216331221232455e-16  -1.8185973560402861e-16  -1.8111380450935845e-16  -1.8244086796848085e-16  -1.8247556243800033e-16  -1.8185973560402868e-16  -1.8179034666498950e-16  -1.8112247812673837e-16  -1.8234545817730217e-16  -1.8247556243800036e-16  -1.8217198582970447e-16  -1.8201586071686655e-16  -1.8100104748342003e-16  -1.8240617349896133e-16  -1.8235413179468195e-16  -1.8303934756769285e-16  -1.8642205834584758e-16  -1.8156483261311243e-16  -1.8802667756112615e-16  -1.9611916257655796e-16  -1.8628328046776946e-16  -1.9292727138076058e-16  -1.8895475462077366e-16  -1.9191245814731419e-16  -2.0173099302134301e-16  3.0292608699244995e-18  -1.5117247731399887e-16  -1.6947380998555421e-16  -1.8446182081799380e-16  -2.0036056147532115e-16  -1.9757633029637849e-16  -2.0251161858553243e-16  -1.8751493413571299e-16  -1.8679502389318258e-16  -1.8271842372463699e-16  -1.7963061593739837e-16  -1.7842498312159455e-16  -1.8286587522009506e-16  -1.8089696407486145e-16  -1.8225004838612326e-16  -1.8244086796848083e-16  -1.8077553343154308e-16  -1.8296128501127384e-16  -1.8093165854438102e-16  -1.8253627775965947e-16  -1.8268372925511761e-16  -1.8175565219546997e-16  -1.8241484711634128e-16  -1.8258831946393875e-16  -1.8290924330699459e-16  -1.8264903478559801e-16  -1.8317812544577099e-16  -1.8263168755083830e-16  -1.8258831946393882e-16  -1.8339496588026809e-16  -1.8277913904629632e-16  -1.8328220885432963e-16  -1.8266638202035786e-16  -1.8253627775965952e-16  -1.8306536841983250e-16  -1.8314343097625146e-16  -1.8310873650673198e-16  -1.8255362499441937e-16  -1.8288322245485486e-16  -1.8284852798533540e-16  -1.8301332671555315e-16  -1.8445314720061380e-16  -1.8650012090226661e-16  -1.8329955608908933e-16  -1.9037722787107470e-16  -1.