<?xml version="1.0"?>
<VTKFile type="UnstructuredGrid"  version="0.1"  >
<UnstructuredGrid>
<Piece  NumberOfPoints="5305" NumberOfCells="10404">
<Points>
<DataArray  type="Float64"  NumberOfComponents="3"  format="ascii">0 0 0  0.196078431372549 0 0  0.392156862745098 0 0  0.5882352941176471 0 0  0.7843137254901961 0 0  0.9803921568627451 0 0  1.176470588235294 0 0  1.372549019607843 0 0  1.568627450980392 0 0  1.764705882352941 0 0  1.96078431372549 0 0  2.156862745098039 0 0  2.352941176470588 0 0  2.549019607843137 0 0  2.745098039215686 0 0  2.941176470588236 0 0  3.137254901960784 0 0  3.333333333333333 0 0  3.529411764705882 0 0  3.725490196078431 0 0  3.92156862745098 0 0  4.117647058823529 0 0  4.313725490196078 0 0  4.509803921568627 0 0  4.705882352941177 0 0  4.901960784313726 0 0  5.098039215686274 0 0  5.294117647058823 0 0  5.490196078431373 0 0  5.686274509803922 0 0  5.882352941176471 0 0  6.078431372549019 0 0  6.274509803921569 0 0  6.470588235294118 0 0  6.666666666666667 0 0  6.862745098039215 0 0  7.058823529411764 0 0  7.254901960784314 0 0  7.450980392156863 0 0  7.647058823529412 0 0  7.84313725490196 0 0  8.03921568627451 0 0  8.235294117647058 0 0  8.431372549019608 0 0  8.627450980392156 0 0  8.823529411764707 0 0  9.019607843137255 0 0  9.215686274509803 0 0  9.411764705882353 0 0  9.607843137254902 0 0  9.803921568627452 0 0  10 0 0  0 0.196078431372549 0  0.196078431372549 0.196078431372549 0  0.392156862745098 0.196078431372549 0  0.5882352941176471 0.196078431372549 0  0.7843137254901961 0.196078431372549 0  0.9803921568627451 0.196078431372549 0  1.176470588235294 0.196078431372549 0  1.372549019607843 0.196078431372549 0  1.568627450980392 0.196078431372549 0  1.764705882352941 0.196078431372549 0  1.96078431372549 0.196078431372549 0  2.156862745098039 0.196078431372549 0  2.352941176470588 0.196078431372549 0  2.549019607843137 0.196078431372549 0  2.745098039215686 0.196078431372549 0  2.941176470588236 0.196078431372549 0  3.137254901960784 0.196078431372549 0  3.333333333333333 0.196078431372549 0  3.529411764705882 0.196078431372549 0  3.725490196078431 0.196078431372549 0  3.92156862745098 0.196078431372549 0  4.117647058823529 0.196078431372549 0  4.313725490196078 0.196078431372549 0  4.509803921568627 0.196078431372549 0  4.705882352941177 0.196078431372549 0  4.901960784313726 0.196078431372549 0  5.098039215686274 0.196078431372549 0  5.294117647058823 0.196078431372549 0  5.490196078431373 0.196078431372549 0  5.686274509803922 0.196078431372549 0  5.882352941176471 0.196078431372549 0  6.078431372549019 0.196078431372549 0  6.274509803921569 0.196078431372549 0  6.470588235294118 0.196078431372549 0  6.666666666666667 0.196078431372549 0  6.862745098039215 0.196078431372549 0  7.058823529411764 0.196078431372549 0  7.254901960784314 0.196078431372549 0  7.450980392156863 0.196078431372549 0  7.647058823529412 0.196078431372549 0  7.84313725490196 0.196078431372549 0  8.03921568627451 0.196078431372549 0  8.235294117647058 0.196078431372549 0  8.431372549019608 0.196078431372549 0  8.627450980392156 0.196078431372549 0  8.823529411764707 0.196078431372549 0  9.019607843137255 0.196078431372549 0  9.215686274509803 0.196078431372549 0  9.411764705882353 0.196078431372549 0  9.607843137254902 0.196078431372549 0  9.803921568627452 0.196078431372549 0  10 0.196078431372549 0  0 0.392156862745098 0  0.196078431372549 0.392156862745098 0  0.392156862745098 0.392156862745098 0  0.5882352941176471 0.392156862745098 0  0.7843137254901961 0.392156862745098 0  0.9803921568627451 0.392156862745098 0  1.176470588235294 0.392156862745098 0  1.372549019607843 0.392156862745098 0  1.568627450980392 0.392156862745098 0  1.764705882352941 0.392156862745098 0  1.96078431372549 0.392156862745098 0  2.156862745098039 0.392156862745098 0  2.352941176470588 0.392156862745098 0  2.549019607843137 0.392156862745098 0  2.745098039215686 0.392156862745098 0  2.941176470588236 0.392156862745098 0  3.137254901960784 0.392156862745098 0  3.333333333333333 0.392156862745098 0  3.529411764705882 0.392156862745098 0  3.725490196078431 0.392156862745098 0  3.92156862745098 0.392156862745098 0  4.117647058823529 0.392156862745098 0  4.313725490196078 0.392156862745098 0  4.509803921568627 0.392156862745098 0  4.705882352941177 0.392156862745098 0  4.901960784313726 0.392156862745098 0  5.098039215686274 0.392156862745098 0  5.294117647058823 0.392156862745098 0  5.490196078431373 0.392156862745098 0  5.686274509803922 0.392156862745098 0  5.882352941176471 0.392156862745098 0  6.078431372549019 0.392156862745098 0  6.274509803921569 0.392156862745098 0  6.470588235294118 0.392156862745098 0  6.666666666666667 0.392156862745098 0  6.862745098039215 0.392156862745098 0  7.058823529411764 0.392156862745098 0  7.254901960784314 0.392156862745098 0  7.450980392156863 0.392156862745098 0  7.647058823529412 0.392156862745098 0  7.84313725490196 0.392156862745098 0  8.03921568627451 0.392156862745098 0  8.235294117647058 0.392156862745098 0  8.431372549019608 0.392156862745098 0  8.627450980392156 0.392156862745098 0  8.823529411764707 0.392156862745098 0  9.019607843137255 0.392156862745098 0  9.215686274509803 0.392156862745098 0  9.411764705882353 0.392156862745098 0  9.607843137254902 0.392156862745098 0  9.803921568627452 0.392156862745098 0  10 0.392156862745098 0  0 0.5882352941176471 0  0.196078431372549 0.5882352941176471 0  0.392156862745098 0.5882352941176471 0  0.5882352941176471 0.5882352941176471 0  0.7843137254901961 0.5882352941176471 0  0.9803921568627451 0.5882352941176471 0  1.176470588235294 0.5882352941176471 0  1.372549019607843 0.5882352941176471 0  1.568627450980392 0.5882352941176471 0  1.764705882352941 0.5882352941176471 0  1.96078431372549 0.5882352941176471 0  2.156862745098039 0.5882352941176471 0  2.352941176470588 0.5882352941176471 0  2.549019607843137 0.5882352941176471 0  2.745098039215686 0.5882352941176471 0  2.941176470588236 0.5882352941176471 0  3.137254901960784 0.5882352941176471 0  3.333333333333333 0.5882352941176471 0  3.529411764705882 0.5882352941176471 0  3.725490196078431 0.5882352941176471 0  3.92156862745098 0.5882352941176471 0  4.117647058823529 0.5882352941176471 0  4.313725490196078 0.5882352941176471 0  4.509803921568627 0.5882352941176471 0  4.705882352941177 0.5882352941176471 0  4.901960784313726 0.5882352941176471 0  5.098039215686274 0.5882352941176471 0  5.294117647058823 0.5882352941176471 0  5.490196078431373 0.5882352941176471 0  5.686274509803922 0.5882352941176471 0  5.882352941176471 0.5882352941176471 0  6.078431372549019 0.5882352941176471 0  6.274509803921569 0.5882352941176471 0  6.470588235294118 0.5882352941176471 0  6.666666666666667 0.5882352941176471 0  6.862745098039215 0.5882352941176471 0  7.058823529411764 0.5882352941176471 0  7.254901960784314 0.5882352941176471 0  7.450980392156863 0.5882352941176471 0  7.647058823529412 0.5882352941176471 0  7.84313725490196 0.5882352941176471 0  8.03921568627451 0.5882352941176471 0  8.235294117647058 0.5882352941176471 0  8.431372549019608 0.5882352941176471 0  8.627450980392156 0.5882352941176471 0  8.823529411764707 0.5882352941176471 0  9.019607843137255 0.5882352941176471 0  9.215686274509803 0.5882352941176471 0  9.411764705882353 0.5882352941176471 0  9.607843137254902 0.5882352941176471 0  9.803921568627452 0.5882352941176471 0  10 0.5882352941176471 0  0 0.7843137254901961 0  0.196078431372549 0.7843137254901961 0  0.392156862745098 0.7843137254901961 0  0.5882352941176471 0.7843137254901961 0  0.7843137254901961 0.7843137254901961 0  0.9803921568627451 0.7843137254901961 0  1.176470588235294 0.7843137254901961 0  1.372549019607843 0.7843137254901961 0  1.568627450980392 0.7843137254901961 0  1.764705882352941 0.7843137254901961 0  1.96078431372549 0.7843137254901961 0  2.156862745098039 0.7843137254901961 0  2.352941176470588 0.7843137254901961 0  2.549019607843137 0.7843137254901961 0  2.745098039215686 0.7843137254901961 0  2.941176470588236 0.7843137254901961 0  3.137254901960784 0.7843137254901961 0  3.333333333333333 0.7843137254901961 0  3.529411764705882 0.7843137254901961 0  3.725490196078431 0.7843137254901961 0  3.92156862745098 0.7843137254901961 0  4.117647058823529 0.7843137254901961 0  4.313725490196078 0.7843137254901961 0  4.509803921568627 0.7843137254901961 0  4.705882352941177 0.7843137254901961 0  4.901960784313726 0.7843137254901961 0  5.098039215686274 0.7843137254901961 0  5.294117647058823 0.7843137254901961 0  5.490196078431373 0.7843137254901961 0  5.686274509803922 0.7843137254901961 0  5.882352941176471 0.7843137254901961 0  6.078431372549019 0.7843137254901961 0  6.274509803921569 0.7843137254901961 0  6.470588235294118 0.7843137254901961 0  6.666666666666667 0.7843137254901961 0  6.862745098039215 0.7843137254901961 0  7.058823529411764 0.7843137254901961 0  7.254901960784314 0.7843137254901961 0  7.450980392156863 0.7843137254901961 0  7.647058823529412 0.7843137254901961 0  7.84313725490196 0.7843137254901961 0  8.03921568627451 0.7843137254901961 0  8.235294117647058 0.7843137254901961 0  8.431372549019608 0.7843137254901961 0  8.627450980392156 0.7843137254901961 0  8.823529411764707 0.7843137254901961 0  9.019607843137255 0.7843137254901961 0  9.215686274509803 0.7843137254901961 0  9.411764705882353 0.7843137254901961 0  9.607843137254902 0.7843137254901961 0  9.803921568627452 0.7843137254901961 0  10 0.7843137254901961 0  0 0.9803921568627451 0  0.196078431372549 0.9803921568627451 0  0.392156862745098 0.9803921568627451 0  0.5882352941176471 0.9803921568627451 0  0.7843137254901961 0.9803921568627451 0  0.9803921568627451 0.9803921568627451 0  1.176470588235294 0.9803921568627451 0  1.372549019607843 0.9803921568627451 0  1.568627450980392 0.9803921568627451 0  1.764705882352941 0.9803921568627451 0  1.96078431372549 0.9803921568627451 0  2.156862745098039 0.9803921568627451 0  2.352941176470588 0.9803921568627451 0  2.549019607843137 0.9
[...]
<PointData  Scalars="f_7"> 
<DataArray  type="Float64"  Name="f_7"  format="ascii">3.8849842175676328e-04  3.8845235113002768e-04  3.8839541942554853e-04  3.8832617926493621e-04  3.8824320569561449e-04  3.8814517329566320e-04  3.8803095435413785e-04  3.8789973847742990e-04  3.8775117199038285e-04  3.8758551278831086e-04  3.8740379287729304e-04  3.8720797687681190e-04  3.8700110059787757e-04  3.8678737001841308e-04  3.8657219834370643e-04  3.8636215831739322e-04  3.8616482952814120e-04  3.8598852695196804e-04  3.8584190773741398e-04  3.8573346788671004e-04  3.8567095764250789e-04  3.8566076166646451e-04  3.8570730431090503e-04  3.8581254800654344e-04  3.8597565113881034e-04  -2.3637892825269201e-03  3.8645752126631417e-04  3.8676065091967845e-04  3.8709130493900915e-04  3.8743741672804327e-04  3.8778658800460946e-04  3.8812689175996690e-04  3.8844758618901030e-04  3.8873967629599136e-04  3.8899628435447433e-04  3.8921281729755597e-04  3.8938694373945716e-04  3.8951841219593466e-04  3.8960875338972100e-04  3.8966091320355055e-04  3.8967886008894675e-04  3.8966720350493530e-04  3.8963085037768339e-04  3.8957471651998279e-04  3.8950350081957968e-04  3.8942152262514020e-04  3.8933261745674046e-04  3.8924008288788970e-04  3.8914666489874331e-04  3.8905457478293192e-04  3.8896552738495820e-04  3.8941468676587462e-04  3.7466761122207753e-04  3.7220912030977281e-04  3.6937282370954732e-04  3.6611632720703256e-04  3.6239685567075774e-04  3.5817270373974608e-04  3.5340510671793131e-04  3.4806056244316151e-04  3.4211360959815842e-04  3.3555003067666287e-04  3.2837039751850176e-04  3.2059381436062796e-04  3.1226164036186535e-04  3.0344089625383469e-04  2.9422698749363203e-04  2.8474532208162747e-04  2.7515138095823594e-04  2.6562882934621921e-04  2.5638535280753891e-04  2.4764606950711916e-04  2.3964460607207497e-04  2.3261220924873299e-04  2.2676556404193106e-04  2.2229425316026193e-04  2.1934896951096111e-04  -2.5320293498565256e-03  2.1838847845903609e-04  2.2040679406696391e-04  2.2401581751002313e-04  2.2909155589741833e-04  2.3546507678552604e-04  2.4293334805186275e-04  2.5127152063167402e-04  2.6024549183340949e-04  2.6962368882881319e-04  2.7918723196787971e-04  2.8873792487166543e-04  2.9810381979963944e-04  3.0714237814610031e-04  3.1574145755592866e-04  3.2381849597447538e-04  3.3131833011274111e-04  3.3821009238924342e-04  3.4448359257115493e-04  3.5014552520195647e-04  3.5521576666117653e-04  3.5972394809065768e-04  3.6370642030185120e-04  3.6720366848418313e-04  3.7025818960214122e-04  3.7291281338564262e-04  3.7576351546615326e-04  3.5623903972868546e-04  3.5042828398973246e-04  3.4369865997254019e-04  3.3594047286110391e-04  3.2704118330540170e-04  3.1688874607877437e-04  3.0537605388054260e-04  2.9240660709047456e-04  2.7790147569911063e-04  2.6180753214636465e-04  2.4410680802894259e-04  2.2482666143432484e-04  2.0405023854020118e-04  1.8192648502428791e-04  1.5867873265619877e-04  1.3461068943618321e-04  1.1010854445463532e-04  8.5637914747180570e-05  6.1734562009221335e-05  3.8988227537318590e-05  1.8019577859327851e-05  -5.4892135872167347e-07  -1.6126475496427617e-05  -2.8189196676361534e-05  -3.6313904420472897e-05  -2.7902597722531644e-03  -3.9725633679303153e-05  -3.4887562866354261e-05  -2.5870438481403159e-05  -1.2998687565722483e-05  3.2793070449738175e-06  2.2421510538168281e-05  4.3826686692383386e-05  6.6869562551921549e-05  9.0933601436615468e-05  1.1543896551897598e-04  1.3986413069669358e-04  1.6376052402727659e-04  1.8676035107020514e-04  2.0857838148647328e-04  2.2900883409762322e-04  2.4791865932070179e-04  2.6523849811890566e-04  2.8095245565886058e-04  2.9508761791317405e-04  3.0770400530603399e-04  3.1888543192576374e-04  3.2873154220996906e-04  3.3735113916627914e-04  3.4485680106582727e-04  3.5136070397051686e-04  3.5754605077042837e-04  3.3224188607971545e-04  3.2189594574237021e-04  3.0985922495780705e-04  2.9591677458199340e-04  2.7984454676793303e-04  2.6141513274867211e-04  2.4040569824731832e-04  2.1660843652453743e-04  1.8984377608890105e-04  1.5997642926372736e-04  1.2693413303130243e-04  9.0728603475916905e-05  5.1477798553493806e-05  9.4280768161646270e-06  -3.5025707327516001e-05  -8.1324647139391183e-05  -1.2873762279065100e-04  -1.7636351193954606e-04  -2.2314646725546126e-04  -2.6790616596294770e-04  -3.0938358908902386e-04  -3.4630104570068811e-04  -3.7743301920512999e-04  -4.0168231328897603e-04  -4.1815433771254533e-04  -3.1761279102803584e-03  -4.2557105755317812e-04  -4.1622811401982037e-04  -3.9855488752502252e-04  -3.7322229312945234e-04  -3.4115985789378672e-04  -3.0348924244870932e-04  -2.6144912231256277e-04  -2.1631931710759593e-04  -1.6935115321363922e-04  -1.2170931057639724e-04  -7.4428267327774337e-05  -2.8384334497079742e-05  1.5717513443424759e-05  5.7344078128976933e-05  9.6124425487592659e-05  1.3183341379481868e-04  1.6437108432305848e-04  1.9374032506948454e-04  2.2002468863317883e-04  2.4336769788002244e-04  2.6395447416375530e-04  2.8199610904810720e-04  2.9771688454017695e-04  3.1134422551502334e-04  3.2310112870466640e-04  3.3379582609065493e-04  3.0158503577408621e-04  2.8523524991196027e-04  2.6612143130197782e-04  2.4386986731699347e-04  2.1808503211849894e-04  1.8835809616134491e-04  1.5427927807882137e-04  1.1545474332690023e-04  7.1528660106015419e-05  2.2210808522659118e-05  -3.2690234821132090e-05  -9.3228882083907946e-05  -1.5928061566495102e-04  -2.3049867778456872e-04  -3.0627281365227832e-04  -3.8569467445334713e-04  -4.6753547718838309e-04  -5.5024206993340525e-04  -6.3195735087138777e-04  -7.1056974369002295e-04  -7.8379395892727664e-04  -8.4928160988913867e-04  -9.0475575400064559e-04  -9.4815878526356776e-04  -9.7779925812075709e-04  -3.7420264891625328e-03  -9.9159985489738608e-04  -9.7519169916009639e-04  -9.4393130941438968e-04  -8.9907612901317868e-04  -8.4236620291761846e-04  -7.7589206120671475e-04  -7.0194686969432096e-04  -6.2287922757925179e-04  -5.4096071168806173e-04  -4.5827827710525200e-04  -3.7665693910084771e-04  -2.9761371317288117e-04  -2.2234023715660221e-04  -1.5170915809441373e-04  -8.6298246936090560e-05  -2.6426105441499001e-05  2.7806050018752941e-05  7.6471015673627889e-05  1.1977395552245282e-04  1.5801467600113554e-04  1.9155504500180986e-04  2.2079202210366464e-04  2.4613622236904184e-04  2.6799558246835635e-04  2.8676349955710569e-04  3.0342632781599205e-04  2.6306399792248121e-04  2.3891142140094584e-04  2.1053407401378890e-04  1.7732549492166565e-04  1.3863425297369850e-04  9.3775218856870604e-05  4.2047029790586399e-05  -1.7242869260207558e-05  -8.4744277660444916e-05  -1.6102030066128309e-04  -2.4649285588927922e-04  -3.4137793544980602e-04  -4.4561223424614778e-04  -5.5877450670040294e-04  -6.8000716506710186e-04  -8.0794600811806138e-04  -9.4066823312605771e-04  -1.0756705243845637e-03  -1.2098893724729338e-03  -1.3397741679442286e-03  -1.4614194925437049e-03  -1.5707562684713081e-03  -1.6637925440545619e-03  -1.7368850015594044e-03  -1.7870137609728885e-03  -4.5608837226387110e-03  -1.8108300689890723e-03  -1.7834725050149393e-03  -1.7311533630542007e-03  -1.6561109505141007e-03  -1.5614329957700367e-03  -1.4508069877254750e-03  -1.3282441992182577e-03  -1.1978096824776516e-03  -1.0633850732907615e-03  -9.2848231927214616e-04  -7.9611672956398836e-04  -6.6873898172939211e-04  -5.4821916401088578e-04  -4.3587203753946022e-04  -3.3251129393587734e-04  -2.3852109401867032e-04  -1.5393490382180068e-04  -7.8513945894197033e-05  -1.1819957927486513e-05  4.6720924058798772e-05  9.7764626462386111e-05  1.4200615075133375e-04  1.8014650649683748e-04  2.1286844319234156e-04  2.4081963478843663e-04  2.6523780598114661e-04  2.1537623158666877e-04  1.8124729728830605e-04  1.4094198559003347e-04  9.3520670834958234e-05  3.7959395789134221e-05  -2.6836887262705278e-05  -1.0201169900657246e-04  -1.8872253096396754e-04  -2.8809185339079507e-04  -4.0114120780250620e-04  -5.2870656658048228e-04  -6.7133435237885103e-04  -8.2915949683874852e-04  -1.0017698101446992e-03  -1.1880647431568435e-03  -1.3861211558865573e-03  -1.5930834526349585e-03  -1.8050995107637062e-03  -2.0173259396381472e-03  -2.2240248507140181e-03  -2.4187681119645413e-03  -2.5947532782959327e-03  -2.7452185986930064e-03  -2.8639250025771228e-03  -2.9456547666271630e-03  -5.7343324369178361e-03  -2.9850296163745917e-03  -2.9408261492366253e-03  -2.8561246804633101e-03  -2.7347938691595257e-03  -2.5821465021661051e-03  -2.4044805955335683e-03  -2.2085795882011623e-03  -2.0012334204810123e-03  -1.7888297057399489e-03  -1.5770457107525707e-03  -1.3706523946311927e-03  -1.1734252338054367e-03  -9.8814516182194208e-04  -8.1666713144137317e-04  -6.6003276639523402e-04  -5.1860589118675178e-04  -3.9221390201563762e-04  -2.8028271365959764e-04  -1.8195751927377562e-04  -9.6205351352563557e-05  -2.1898256224766653e-05  4.2122182728848980e-05  9.6997081000682635e-05  1.4381678846405295e-04  1.8359911307618717e-04  2.1793244894543614e-04  1.5714693291543169e-04  1.1045228222583030e-04  5.5017207480439424e-05  -1.0564911239111693e-05  -8.7848688370859503e-05  -1.7852372936569369e-04  -2.8438819259373437e-04  -4.0730465267945452e-04  -5.4913354426889193e-04  -7.1163935960717262e-04  -8.9636527846734292e-04  -1.1044733553186095e-03  -1.3365501523996792e-03  -1.5923821470489915e-03  -1.8707115802003781e-03  -2.1689915574364853e-03  -2.4831685246668503e-03  -2.8075293004777612e-03  -3.1346563384561338e-03  -3.4555357371065160e-03  -3.7598544488713749e-03  -4.0365038030520037e-03  -4.2742758438274195e-03  -4.4627007606330513e-03  -4.5929355957837013e-03  -7.4043165319445858e-03  -4.6563443534996096e-03  -4.5863197537961455e-03  -4.4520367942427249e-03  -4.2600698744482334e-03  -4.0193956066618729e-03  -3.7405617688458142e-03  -3.4347979799187575e-03  -3.1131843016712710e-03  -2.7859655531903798e-03  -2.4620606561015874e-03  -2.1487783025436291e-03  -1.8517201941250440e-03  -1.5748344686717351e-03  -1.3205745135872896e-03  -1.0901196893970792e-03  -8.8362126010204994e-04  -7.0044599418013563e-04  -5.3939919337075558e-04  -3.9891696198053947e-04  -2.7722375097275327e-04  -1.7245553479177837e-04  -8.2751643660445033e-05  -6.3196445059539145e-06  5.8521884213408226e-05  1.1331797768133217e-04  1.6013996639601525e-04  8.6967267487384967e-05  2.4667705496109414e-05  -4.9688439120242748e-05  -1.3814988185704340e-04  -2.4301235300103321e-04  -3.6681038000434962e-04  -5.1229085600130433e-04  -6.8236153603676742e-04  -8.8000642872313470e-04  -1.1081592407166507e-03  -1.3695259929845025e-03  -1.6663492329053483e-03  -2.0001096414949209e-03  -2.3711670932859918e-03  -2.7783530965757208e-03  -3.2185403585184460e-03  -3.6862324577065808e-03  -4.1732353135485257e-03  -4.6684884394130486e-03  -5.1581419577091297e-03  -5.6259578778196746e-03  -6.0540847545583840e-03  -6.4242010248334079e-03  -6.7189489471642713e-03  -6.9235024594232275e-03  -9.7697178036637525e-03  -7.0239562761685520e-03  -6.9143861374295675e-03  -6.7042918046077088e-03  -6.4047479449865176e-03  -6.0307690982386230e-03  -5.5998146270381790e-03  -5.1302219322011469e-03  -4.6397841610549594e-03  -4.1446252883282865e-03  -3.6584464415521491e-03  -3.1921445798426549e-03  -2.7537519889542931e-03  -2.3486169531073543e-03  -1.9797395506826608e-03  -1.6481852124995940e-03  -1.3535153152801635e-03  -1.0941928437689481e-03  -8.6793827249602548e-04  -6.7202443447180490e-04  -5.0350880119870889e-04  -3.5940766935127141e-04  -2.3681997927275047e-04  -1.3300969346825392e-04  -4.5455560305277345e-05  2.8123757913717150e-05  9.0455559733032846e-05  3.4467277943250813e-06  -7.7968700216412667e-05  -1.7566511932295891e-04  -2.9255810553165937e-04  -4.3195927374468641e-04  -5.9758104174447422e-04  -7.9351819105728805e-04  -1.0241957507131638e-03  -1.2942702787210104e-03  -1.6084693792257116e-03  -1.9713528521152846e-03  -2.3869791286969780e-03  -2.8584638763729030e-03  -3.3874254755381882e-03  -3.9733262554472780e-03  -4.6127403869088849e-03  -5.2986094912806352e-03  -6.0195833005863963e-03  -6.7595793044790331e-03  -7.4977217336897354e-03  -8.2088217012234420e-03  -8.8645210188061339e-03  -9.4351317156579836e-03  -9.8920653131570890e-03  -1.0210585299857529e-02  -1.3110407244811469e-02  -1.0368179922778756e-02  -1.0197939799575039e-02  -9.8717939364457198e-03  -9.4083428882518021e-03  -8.8325895211102453e-03  -8.1732514980599139e-03  -7.4600142037343506e-03  -6.7211237469322945e-03  -5.9815794001505636e-03  -5.2620240508392457e-03  -4.5782948457886363e-03  -3.9415080856079442e-03  -3.3585154083523453e-03  -2.8325714637173404e-03  -2.3640806417098998e-03  -1.9513273305295966e-03  -1.5911303352134560e-03  -1.2793919137110844e-03  -1.0115335017330752e-03  -7.8282401934907724e-04  -5.8861418740023866e-04  -4.2449331035987258e-04  -2.8638511245958451e-04  -1.7059770293130266e-04  -7.3840479112404357e-05  7.4919575536909139e-06  -9.4719320837282129e-05  -1.9923715831553535e-04  -3.2533749893547641e-04  -4.7708551825157493e-04  -6.5916024124989874e-04  -8.7688587189665317e-04  -1.1362358231655574e-03  -1.4437942680646933e-03  -1.8066554948863566e-03  -2.2322365511011234e-03  -2.7279743216332740e-03  -3.3008755882307957e-03  -3.9568897835952476e-03  -4.7000819830189848e-03  -5.5316018453644214e-03  -6.4484766492745663e-03  -7.4423061554669632e-03  -8.4980033109388307e-03  -9.5928007577831091e-03  -1.0695811718461488e-02  -1.1768466698328893e-02  -1.2766108509163062e-02  -1.3640885671337958e-02  -1.4345831118168563e-02  -1.4839687782143949e-02  -1.7822435982300155e-02  -1.5085717171925826e-02  -1.4822011401676681e-02  -1.4317592742171835e-02  -1.3603755189517952e-02  -1.2722132415562888e-02  -1.1719848541472681e-02  -1.0644708081543131e-02  -9.5411597028140505e-03  -8.4474584905785844e-03  -7.3941268651976375e-03  -6.4035649449949456e-03  -5.4905233815746553e-03  -4.6631167374794648e-03  -3.9240908955111911e-03  -3.2721277100511556e-03  -2.7030461117121497e-03  -2.2108246256998592e-03  -1.7884191037844397e-03  -1.4283811875560901e-03  -1.1233006151303809e-03  -8.6610190704211349e-04  -6.5022687954321198e-04  -4.6973169574588509e-04  -3.1932276693719683e-04  -1.9435100724211074e-04  -9.0053417807484478e-05  -2.0866683683333151e-04  -3.4072822366984111e-04  -5.0092584351863281e-04  -6.9482246652798800e-04  -9.2890453444686820e-04  -1.2106612144936570e-03  -1.5486349497002855e-03  -1.9524227261639511e-03  -2.4325995969931360e-03  -3.0005270149030152e-03  -3.6679989335157452e-03  -4.4466700004998968e-03  -5.3472053486595984e-03  -6.3780951473814823e-03  -7.5440959628272171e-03  -8.8443036810112174e-03  -1.0269938153486365e-02  -1.1802033290539009e-02  -1.3409373536603370e-02  -1.5047175156652295e-02  -1.6657128431554830e-02  -1.8169418211548272e-02  -1.9507141131362142e-02  -2.0593089501426264e-02  -2.1358219351068249e-02  -2.4470222602522563e-02  -2.1741932902773455e-02  -2.1333289569007929e-02  -2.0553425853219686e-02  -1.9455294544346510e-02  -1.8108470838080478e-02  -1.6590337190013699e-02  -1.4977653584403517e-02  -1.3339854653356641e-02  -1.1734729754171842e-02  -1.0206493420588254e-02  -8.7858139813877800e-03  -7.4911780495165239e-03  -6.3309766101597616e-03  -5.3058196093318391e-03  -4.4107443095367958e-03  -3.6371291508592164e-03  -2.9742370123599358e-03  -2.4103857181941349e-03  -1.9337851438580007e-03  -1.5330983188849010e-03  -1.1977870528927649e-03  -9.1829751280572290e-04  -6.8613242428359946e-04  -4.9384695958181509e-04  -3.3499641963928009e-04  -2.0331607415614394e-04  -3.3926638335585884e-04  -5.0371419522476804e-04  -7.0427588580497286e-04  -9.4843000276895238e-04  -1.2450081262795104e-03  -1.6043529337215518e-03  -2.0384527010434408e-03  -2.5610256512787668e-03  -3.1875155314373079e-03  -3.9349445399730568e-03  -4.8215515370044325e-03  -5.8661237719364826e-03  -7.0869125672442367e-03  -8.5000140612126029e-03  -1.0117106237116768e-02  -1.1942479353362730e-02  -1.3969399322342670e-02  -1.6176023198147177e-02  -1.8521352015289930e-02  -2.0942037223404510e-02  -2.3351175747330800e-02  -2.5640385918434989e-02  -2.7686248631510209e-02  -2.9361449622702988e-02  -3.0549669575615283e-02  -3.3865183764972120e-02  -3.1149603194874583e-02  -3.0514145015528984e-02  -2.9305204052055615e-02  -2.7613240360988903e-02  -2.5555316899095012e-02  -2.3258904049919288e-02  -2.0847078198610740e-02  -1.8427534551595931e-02  -1.6086316329921458e-02  -1.3885885611530667e-02  -1.1866431899092268e-02  -1.0049123634986881e-02  -8.4401755934977764e-03  -7.0349277890667432e-03  -5.8214620063956795e-03  -4.7835455027694564e-03  -3.9028679981483933e-03  -3.1606379243413994e-03  -2.5386479645360259e-03  -2.0199289165065771e-03  -1.5891009882719948e-03  -1.2325136025481847e-03  -9.3824505748726938e-04  -6.9601527319628615e-04  -4.9704970679131314e-04  -3.3316818743120365e-04  -4.8701565409364013e-04  -6.8900308519888364e-04  -9.3666101916417674e-04  -1.2398730479923838e-03  -1.6104556806472911e-03  -2.0624395313175842e-03  -2.6123428820668685e-03  -3.2794064814810646e-03  -4.0857409892569958e-03  -5.0563146940321626e-03  -6.2186781847237624e-03  -7.6022848572654365e-03  -9.2372243188590230e-03  -1.1152147466900946e-02  -1.3371142696063936e-02  -1.5909349282244693e-02  -1.8767207524593897e-02  -2.1923498247089696e-02  -2.5327766229664841e-02  -2.8893363747713383e-02  -3.2493102635485271e-02  -3.5960107422123674e-02  -3.9096467426515284e-02  -4.1691172671751639e-02  -4.3546338990465908e-02  -4.7186454191871029e-02  -4.4489781325263010e-02  -4.3495104660393184e-02  -4.1610529625096045e-02  -3.8992667707312904e-02  -3.5840425972115529e-02  -3.2364853782357504e-02  -2.8763117304774394e-02  -2.5200862009056826e-02  -2.1803858418199755e-02  -1.8657381575766602e-02  -1.5810703322669064e-02  -1.3284112445312321e-02  -1.1076496442283291e-02  -9.1722728348004583e-03  -7.5470948431653299e-03  -6.1721916456406846e-03  -5.0174506516337501e-03  -4.0534586272207478e-03  -3.2527426126365902e-03  -2.5904309806964866e-03  -2.0445162193114441e-03  -1.5958591597854952e-03  -1.2280367400990641e-03  -9.2710468222402347e-04  -6.8132291640911411e-04  -4.8011158580136930e-04  -6.5192654903094564e-04  -8.9678174444628471e-04  -1.1985647463162914e-03  -1.5701194437843940e-03  -2.0269856736564911e-03  -2.5878629015828425e-03  -3.2750999057212255e-03  -4.1151786233215061e-03  -5.1391370536223568e-03  -6.3828420924842370e-03  -7.8869753014104219e-03  -9.6965303075359065e-03  -1.1859539493405893e-02  -1.4424655253799415e-02  -1.7437124335631105e-02  -2.0932650106987600e-02  -2.4928706035204178e-02  -2.9413152858144234e-02  -3.4330662168868674e-02  -3.9568583069460615e-02  -4.4945489566918628e-02  -5.0207357142418578e-02  -5.5037244437670080e-02  -5.9083136563819853e-02  -6.2004081677868472e-02  -6.6170415821660361e-02  -6.3501483066903078e-02  -6.1929142071596013e-02  -5.8966027698423337e-02  -5.4888042182718179e-02  -5.0037492061093612e-02  -4.4766074987450138e-02  -3.9389188120642606e-02  -3.4158661712727266e-02  -2.9253594263003332e-02  -2.4784532394340232e-02  -2.0805106261076688e-02  -1.7326209538294002e-02  -1.4329538380984280e-02  -1.1778897673766437e-02  -9.6288022306083246e-03  -7.8305370930298081e-03  -6.3361204624775664e-03  -5.1006754307123597e-03  -4.0836701729884493e-03  -3.2493985182682453e-03  -2.5669804128996389e-03  -2.0100811627120335e-03  -1.5564845562178716e-03  -1.1876075937931169e-03  -8.8801093996174630e-04  -6.4416524574750951e-04  -8.3341440151021048e-04  -1.1264581935247274e-03  -1.4894564473400998e-03  -1.9388214721141729e-03  -2.4946389377248821e-03  -3.1813902032940427e-03  -4.0287604631404671e-03  -5.0725079950661930e-03  -6.3553418820772286e-03  -7.9277114713826834e-03  -9.8483436973525098e-03  -1.2184266102597088e-02  -1.5009916034967305e-02  -1.8404756377691477e-02  -2.2448604445979067e-02  -2.7213671734474677e-02  -3.2752202461502754e-02  -3.9078774552210996e-02  -4.6147094403822066e-02  -5.3822876452830931e-02  -6.1857464327246203e-02  -6.9871000106121461e-02  -7.7357716801605067e-02  -8.3726128155862778e-02  -8.8379533408984703e-02  -9.3416327076586911e-