<?xml version="1.0"?>
<VTKFile type="UnstructuredGrid"  version="0.1"  >
<UnstructuredGrid>
<Piece  NumberOfPoints="255" NumberOfCells="448">
<Points>
<DataArray  type="Float64"  NumberOfComponents="3"  format="ascii">0 0 0  0.07142857142857142 0 0  0.1428571428571428 0 0  0.2142857142857143 0 0  0.2857142857142857 0 0  0.3571428571428572 0 0  0.4285714285714285 0 0  0.5 0 0  0.5714285714285714 0 0  0.6428571428571429 0 0  0.7142857142857143 0 0  0.7857142857142857 0 0  0.8571428571428571 0 0  0.9285714285714286 0 0  1 0 0  0 0.0625 0  0.07142857142857142 0.0625 0  0.1428571428571428 0.0625 0  0.2142857142857143 0.0625 0  0.2857142857142857 0.0625 0  0.3571428571428572 0.0625 0  0.4285714285714285 0.0625 0  0.5 0.0625 0  0.5714285714285714 0.0625 0  0.6428571428571429 0.0625 0  0.7142857142857143 0.0625 0  0.7857142857142857 0.0625 0  0.8571428571428571 0.0625 0  0.9285714285714286 0.0625 0  1 0.0625 0  0 0.125 0  0.07142857142857142 0.125 0  0.1428571428571428 0.125 0  0.2142857142857143 0.125 0  0.2857142857142857 0.125 0  0.3571428571428572 0.125 0  0.4285714285714285 0.125 0  0.5 0.125 0  0.5714285714285714 0.125 0  0.6428571428571429 0.125 0  0.7142857142857143 0.125 0  0.7857142857142857 0.125 0  0.8571428571428571 0.125 0  0.9285714285714286 0.125 0  1 0.125 0  0 0.1875 0  0.07142857142857142 0.1875 0  0.1428571428571428 0.1875 0  0.2142857142857143 0.1875 0  0.2857142857142857 0.1875 0  0.3571428571428572 0.1875 0  0.4285714285714285 0.1875 0  0.5 0.1875 0  0.5714285714285714 0.1875 0  0.6428571428571429 0.1875 0  0.7142857142857143 0.1875 0  0.7857142857142857 0.1875 0  0.8571428571428571 0.1875 0  0.9285714285714286 0.1875 0  1 0.1875 0  0 0.25 0  0.07142857142857142 0.25 0  0.1428571428571428 0.25 0  0.2142857142857143 0.25 0  0.2857142857142857 0.25 0  0.3571428571428572 0.25 0  0.4285714285714285 0.25 0  0.5 0.25 0  0.5714285714285714 0.25 0  0.6428571428571429 0.25 0  0.7142857142857143 0.25 0  0.7857142857142857 0.25 0  0.8571428571428571 0.25 0  0.9285714285714286 0.25 0  1 0.25 0  0 0.3125 0  0.07142857142857142 0.3125 0  0.1428571428571428 0.3125 0  0.2142857142857143 0.3125 0  0.2857142857142857 0.3125 0  0.3571428571428572 0.3125 0  0.4285714285714285 0.3125 0  0.5 0.3125 0  0.5714285714285714 0.3125 0  0.6428571428571429 0.3125 0  0.7142857142857143 0.3125 0  0.7857142857142857 0.3125 0  0.8571428571428571 0.3125 0  0.9285714285714286 0.3125 0  1 0.3125 0  0 0.375 0  0.07142857142857142 0.375 0  0.1428571428571428 0.375 0  0.2142857142857143 0.375 0  0.2857142857142857 0.375 0  0.3571428571428572 0.375 0  0.4285714285714285 0.375 0  0.5 0.375 0  0.5714285714285714 0.375 0  0.6428571428571429 0.375 0  0.7142857142857143 0.375 0  0.7857142857142857 0.375 0  0.8571428571428571 0.375 0  0.9285714285714286 0.375 0  1 0.375 0  0 0.4375 0  0.07142857142857142 0.4375 0  0.1428571428571428 0.4375 0  0.2142857142857143 0.4375 0  0.2857142857142857 0.4375 0  0.3571428571428572 0.4375 0  0.4285714285714285 0.4375 0  0.5 0.4375 0  0.5714285714285714 0.4375 0  0.6428571428571429 0.4375 0  0.7142857142857143 0.4375 0  0.7857142857142857 0.4375 0  0.8571428571428571 0.4375 0  0.9285714285714286 0.4375 0  1 0.4375 0  0 0.5 0  0.07142857142857142 0.5 0  0.1428571428571428 0.5 0  0.2142857142857143 0.5 0  0.2857142857142857 0.5 0  0.3571428571428572 0.5 0  0.4285714285714285 0.5 0  0.5 0.5 0  0.5714285714285714 0.5 0  0.6428571428571429 0.5 0  0.7142857142857143 0.5 0  0.7857142857142857 0.5 0  0.8571428571428571 0.5 0  0.9285714285714286 0.5 0  1 0.5 0  0 0.5625 0  0.07142857142857142 0.5625 0  0.1428571428571428 0.5625 0  0.2142857142857143 0.5625 0  0.2857142857142857 0.5625 0  0.3571428571428572 0.5625 0  0.4285714285714285 0.5625 0  0.5 0.5625 0  0.5714285714285714 0.5625 0  0.6428571428571429 0.5625 0  0.7142857142857143 0.5625 0  0.7857142857142857 0.5625 0  0.8571428571428571 0.5625 0  0.9285714285714286 0.5625 0  1 0.5625 0  0 0.625 0  0.07142857142857142 0.625 0  0.1428571428571428 0.625 0  0.2142857142857143 0.625 0  0.2857142857142857 0.625 0  0.3571428571428572 0.625 0  0.4285714285714285 0.625 0  0.5 0.625 0  0.5714285714285714 0.625 0  0.6428571428571429 0.625 0  0.7142857142857143 0.625 0  0.7857142857142857 0.625 0  0.8571428571428571 0.625 0  0.9285714285714286 0.625 0  1 0.625 0  0 0.6875 0  0.07142857142857142 0.6875 0  0.1428571428571428 0.6875 0  0.2142857142857143 0.6875 0  0.2857142857142857 0.6875 0  0.3571428571428572 0.6875 0  0.4285714285714285 0.6875 0  0.5 0.6875 0  0.5714285714285714 0.6875 0  0.6428571428571429 0.6875 0  0.7142857142857143 0.6875 0  0.7857142857142857 0.6875 0  0.8571428571428571 0.6875 0  0.9285714285714286 0.6875 0  1 0.6875 0  0 0.75 0  0.07142857142857142 0.75 0  0.1428571428571428 0.75 0  0.2142857142857143 0.75 0  0.2857142857142857 0.75 0  0.3571428571428572 0.75 0  0.4285714285714285 0.75 0  0.5 0.75 0  0.5714285714285714 0.75 0  0.6428571428571429 0.75 0  0.7142857142857143 0.75 0  0.7857142857142857 0.75 0  0.8571428571428571 0.75 0  0.9285714285714286 0.75 0  1 0.75 0  0 0.8125 0  0.07142857142857142 0.8125 0  0.1428571428571428 0.8125 0  0.2142857142857143 0.8125 0  0.2857142857142857 0.8125 0  0.3571428571428572 0.8125 0  0.4285714285714285 0.8125 0  0.5 0.8125 0  0.5714285714285714 0.8125 0  0.6428571428571429 0.8125 0  0.7142857142857143 0.8125 0  0.7857142857142857 0.8125 0  0.8571428571428571 0.8125 0  0.9285714285714286 0.8125 0  1 0.8125 0  0 0.875 0  0.07142857142857142 0.875 0  0.1428571428571428 0.875 0  0.2142857142857143 0.875 0  0.2857142857142857 0.875 0  0.3571428571428572 0.875 0  0.4285714285714285 0.875 0  0.5 0.875 0  0.5714285714285714 0.875 0  0.6428571428571429 0.875 0  0.7142857142857143 0.875 0  0.7857142857142857 0.875 0  0.8571428571428571 0.875 0  0.9285714285714286 0.875 0  1 0.875 0  0 0.9375 0  0.07142857142857142 0.9375 0  0.1428571428571428 0.9375 0  0.2142857142857143 0.9375 0  0.2857142857142857 0.9375 0  0.3571428571428572 0.9375 0  0.4285714285714285 0.9375 0  0.5 0.9375 0  0.5714285714285714 0.9375 0  0.6428571428571429 0.9375 0  0.7142857142857143 0.9375 0  0.7857142857142857 0.9375 0  0.8571428571428571 0.9375 0  0.9285714285714286 0.9375 0  1 0.9375 0  0 1 0  0.07142857142857142 1 0  0.1428571428571428 1 0  0.2142857142857143 1 0  0.2857142857142857 1 0  0.3571428571428572 1 0  0.4285714285714285 1 0  0.5 1 0  0.5714285714285714 1 0  0.6428571428571429 1 0  0.7142857142857143 1 0  0.7857142857142857 1 0  0.8571428571428571 1 0  0.9285714285714286 1 0  1 1 0  </DataArray>
</Points>
<Cells>
<DataArray  type="UInt32"  Name="connectivity"  format="ascii">0 1 16  0 15 16  1 2 17  1 16 17  2 3 18  2 17 18  3 4 19  3 18 19  4 5 20  4 19 20  5 6 21  5 20 21  6 7 22  6 21 22  7 8 23  7 22 23  8 9 24  8 23 24  9 10 25  9 24 25  10 11 26  10 25 26  11 12 27  11 26 27  12 13 28  12 27 28  13 14 29  13 28 29  15 16 31  15 30 31  16 17 32  16 31 32  17 18 33  17 32 33  18 19 34  18 33 34  19 20 35  19 34 35  20 21 36  20 35 36  21 22 37  21 36 37  22 23 38  22 37 38  23 24 39  23 38 39  24 25 40  24 39 40  25 26 41  25 40 41  26 27 42  26 41 42  27 28 43  27 42 43  28 29 44  28 43 44  30 31 46  30 45 46  31 32 47  31 46 47  32 33 48  32 47 48  33 34 49  33 48 49  34 35 50  34 49 50  35 36 51  35 50 51  36 37 52  36 51 52  37 38 53  37 52 53  38 39 54  38 53 54  39 40 55  39 54 55  40 41 56  40 55 56  41 42 57  41 56 57  42 43 58  42 57 58  43 44 59  43 58 59  45 46 61  45 60 61  46 47 62  46 61 62  47 48 63  47 62 63  48 49 64  48 63 64  49 50 65  49 64 65  50 51 66  50 65 66  51 52 67  51 66 67  52 53 68  52 67 68  53 54 69  53 68 69  54 55 70  54 69 70  55 56 71  55 70 71  56 57 72  56 71 72  57 58 73  57 72 73  58 59 74  58 73 74  60 61 76  60 75 76  61 62 77  61 76 77  62 63 78  62 77 78  63 64 79  63 78 79  64 65 80  64 79 80  65 66 81  65 80 81  66 67 82  66 81 82  67 68 83  67 82 83  68 69 84  68 83 84  69 70 85  69 84 85  70 71 86  70 85 86  71 72 87  71 86 87  72 73 88  72 87 88  73 74 89  73 88 89  75 76 91  75 90 91  76 77 92  76 91 92  77 78 93  77 92 93  78 79 94  78 93 94  79 80 95  79 94 95  80 81 96  80 95 96  81 82 97  81 96 97  82 83 98  82 97 98  83 84 99  83 98 99  84 85 100  84 99 100  85 86 101  85 100 101  86 87 102  86 101 102  87 88 103  87 102 103  88 89 104  88 103 104  90 91 106  90 105 106  91 92 107  91 106 107  92 93 108  92 107 108  93 94 109  93 108 109  94 95 110  94 109 110  95 96 111  95 110 111  96 97 112  96 111 112  97 98 113  97 112 113  98 99 114  98 113 114  99 100 115  99 114 115  100 101 116  100 115 116  101 102 117  101 116 117  102 103 118  102 117 118  103 104 119  103 118 119  105 106 121  105 120 121  106 107 122  106 121 122  107 108 123  107 122 123  108 109 124  108 123 124  109 110 125  109 124 125  110 111 126  110 125 126  111 112 127  111 126 127  112 113 128  112 127 128  113 114 129  113 128 129  114 115 130  114 129 130  115 116 131  115 130 131  116 117 132  116 131 132  117 118 133  117 132 133  118 119 134  118 133 134  120 121 136  120 135 136  121 122 137  121 136 137  122 123 138  122 137 138  123 124 139  123 138 139  124 125 140  124 139 140  125 126 141  125 140 141  126 127 142  126 141 142  127 128 143  127 142 143  128 129 144  128 143 144  129 130 145  129 144 145  130 131 146  130 145 146  131 132 147  131 146 147  132 133 148  132 147 148  133 134 149  133 148 149  135 136 151  135 150 151  136 137 152  136 151 152  137 138 153  137 152 153  138 139 154  138 153 154  139 140 155  139 154 155  140 141 156  140 155 156  141 142 157  141 156 157  142 143 158  142 157 158  143 144 159  143 158 159  144 145 160  144 159 160  145 146 161  145 160 161  146 147 162  146 161 162  147 148 163  147 162 163  148 149 164  148 163 164  150 151 166  150 165 166  151 152 167  151 166 167  152 153 168  152 167 168  153 154 169  153 168 169  154 155 170  154 169 170  155 156 171  155 170 171  156 157 172  156 171 172  157 158 173  157 172 173  158 159 174  158 173 174  159 160 175  159 174 175  160 161 176  160 175 176  161 162 177  161 176 177  162 163 178  162 177 178  163 164 179  163 178 179  165 166 181  165 180 181  166 167 182  166 181 182  167 168 183  167 182 183  168 169 184  168 183 184  169 170 185  169 184 185  170 171 186  170 185 186  171 172 187  171 186 187  172 173 188  172 187 188  173 174 189  173 188 189  174 175 190  174 189 190  175 176 191  175 190 191  176 177 192  176 191 192  177 178 193  177 192 193  178 179 194  178 193 194  180 181 196  180 195 196  181 182 197  181 196 197  182 183 198  182 197 198  183 184 199  183 198 199  184 185 200  184 199 200  185 186 201  185 200 201  186 187 202  186 201 202  187 188 203  187 202 203  188 189 204  188 203 204  189 190 205  189 204 205  190 191 206  190 205 206  191 192 207  191 206 207  192 193 208  192 207 208  193 194 209  193 208 209  195 196 211  195 210 211  196 197 212  196 211 212  197 198 213  197 212 213  198 199 214  198 213 214  199 200 215  199 214 215  200 201 216  200 215 216  201 202 217  201 216 217  202 203 218  202 217 218  203 204 219  203 218 219  204 205 220  204 219 220  205 206 221  205 220 221  206 207 222  206 221 222  207 208 223  207 222 223  208 209 224  208 223 224  210 211 226  210 225 226  211 212 227  211 226 227  212 213 228  212 227 228  213 214 229  213 228 229  214 215 230  214 229 230  215 216 231  215 230 231  216 217 232  216 231 232  217 218 233  217 232 233  218 219 234  218 233 234  219 220 235  219 234 235  220 221 236  220 235 236  221 222 237  221 236 237  222 223 238  222 237 238  223 224 239  223 238 239  225 226 241  225 240 241  226 227 242  226 241 242  227 228 243  227 242 243  228 229 244  228 243 244  229 230 245  229 244 245  230 231 246  230 245 246  231 232 247  231 246 247  232 233 248  232 247 248  233 234 249  233 248 249  234 235 250  234 249 250  235 236 251  235 250 251  236 237 252  236 251 252  237 238 253  237 252 253  238 239 254  238 253 254  </DataArray>
<DataArray  type="UInt32"  Name="offsets"  format="ascii">3 6 9 12 15 18 21 24 27 30 33 36 39 42 45 48 51 54 57 60 63 66 69 72 75 78 81 84 87 90 93 96 99 102 105 108 111 114 117 120 123 126 129 132 135 138 141 144 147 150 153 156 159 162 165 168 171 174 177 180 183 186 189 192 195 198 201 204 207 210 213 216 219 222 225 228 231 234 237 240 243 246 249 252 255 258 261 264 267 270 273 276 279 282 285 288 291 294 297 300 303 306 309 312 315 318 321 324 327 330 333 336 339 342 345 348 351 354 357 360 363 366 369 372 375 378 381 384 387 390 393 396 399 402 405 408 411 414 417 420 423 426 429 432 435 438 441 444 447 450 453 456 459 462 465 468 471 474 477 480 483 486 489 492 495 498 501 504 507 510 513 516 519 522 525 528 531 534 537 540 543 546 549 552 555 558 561 564 567 570 573 576 579 582 585 588 591 594 597 600 603 606 609 612 615 618 621 624 627 630 633 636 639 642 645 648 651 654 657 660 663 666 669 672 675 678 681 684 687 690 693 696 699 702 705 708 711 714 717 720 723 726 729 732 735 738 741 744 747 750 753 756 759 762 765 768 771 774 777 780 783 786 789 792 795 798 801 804 807 810 813 816 819 822 825 828 831 834 837 840 843 846 849 852 855 858 861 864 867 870 873 876 879 882 885 888 891 894 897 900 903 906 909 912 915 918 921 924 927 930 933 936 939 942 945 948 951 954 957 960 963 966 969 972 975 978 981 984 987 990 993 996 999 1002 1005 1008 1011 1014 1017 1020 1023 1026 1029 1032 1035 1038 1041 1044 1047 1050 1053 1056 1059 1062 1065 1068 1071 1074 1077 1080 1083 1086 1089 1092 1095 1098 1101 1104 1107 1110 1113 1116 1119 1122 1125 1128 1131 1134 1137 1140 1143 1146 1149 1152 1155 1158 1161 1164 1167 1170 1173 1176 1179 1182 1185 1188 1191 1194 1197 1200 1203 1206 1209 1212 1215 1218 1221 1224 1227 1230 1233 1236 1239 1242 1245 1248 1251 1254 1257 1260 1263 1266 1269 1272 1275 1278 1281 1284 1287 1290 1293 1296 1299 1302 1305 1308 1311 1314 1317 1320 1323 1326 1329 1332 1335 1338 1341 1344 </DataArray>
<DataArray  type="UInt8"  Name="types"  format="ascii">5 5 5 5 5 5 5 5 5 5 5 5 5 5 5 5 5 5 5 5 5 5 5 5 5 5 5 5 5 5 5 5 5 5 5 5 5 5 5 5 5 5 5 5 5 5 5 5 5 5 5 5 5 5 5 5 5 5 5 5 5 5 5 5 5 5 5 5 5 5 5 5 5 5 5 5 5 5 5 5 5 5 5 5 5 5 5 5 5 5 5 5 5 5 5 5 5 5 5 5 5 5 5 5 5 5 5 5 5 5 5 5 5 5 5 5 5 5 5 5 5 5 5 5 5 5 5 5 5 5 5 5 5 5 5 5 5 5 5 5 5 5 5 5 5 5 5 5 5 5 5 5 5 5 5 5 5 5 5 5 5 5 5 5 5 5 5 5 5 5 5 5 5 5 5 5 5 5 5 5 5 5 5 5 5 5 5 5 5 5 5 5 5 5 5 5 5 5 5 5 5 5 5 5 5 5 5 5 5 5 5 5 5 5 5 5 5 5 5 5 5 5 5 5 5 5 5 5 5 5 5 5 5 5 5 5 5 5 5 5 5 5 5 5 5 5 5 5 5 5 5 5 5 5 5 5 5 5 5 5 5 5 5 5 5 5 5 5 5 5 5 5 5 5 5 5 5 5 5 5 5 5 5 5 5 5 5 5 5 5 5 5 5 5 5 5 5 5 5 5 5 5 5 5 5 5 5 5 5 5 5 5 5 5 5 5 5 5 5 5 5 5 5 5 5 5 5 5 5 5 5 5 5 5 5 5 5 5 5 5 5 5 5 5 5 5 5 5 5 5 5 5 5 5 5 5 5 5 5 5 5 5 5 5 5 5 5 5 5 5 5 5 5 5 5 5 5 5 5 5 5 5 5 5 5 5 5 5 5 5 5 5 5 5 5 5 5 5 5 5 5 5 5 5 5 5 5 5 5 5 5 5 5 5 5 5 5 5 5 5 5 5 5 5 5 5 5 5 5 5 5 5 5 5 5 5 5 5 5 5 5 5 5 5 5 5 5 5 </DataArray>
</Cells>
<PointData  Scalars="f_27"> 
<DataArray  type="Float64"  Name="f_27"  format="ascii">6.0850586304550502e-01  5.7693900540876197e-01  5.4674405226254130e-01  5.1909467624638561e-01  4.9537867649799328e-01  4.7704561317689337e-01  4.6541503319275485e-01  4.6142898924981074e-01  4.6543057183066860e-01  4.7707397851821237e-01  4.9541571425239256e-01  5.1913621126943421e-01  5.4678670028136545e-01  5.7698049361292092e-01  6.0854610710193635e-01  5.8087292796745882e-01  5.4564908012938140e-01  5.1128102161688060e-01  4.7939792923220692e-01  4.5167693342509108e-01  4.2997080618455963e-01  4.1605973131769058e-01  4.1127060237372781e-01  4.1609703045053514e-01  4.3003731606021345e-01  4.5176103934066025e-01  4.7948901790721926e-01  5.1137145905417203e-01  5.4573417099046240e-01  5.8091542549271424e-01  5.5415317757229920e-01  5.1475276995689168e-01  4.7578508912832723e-01  4.3905941956736461e-01  4.0656508419033216e-01  3.8066947705510307e-01  3.6382434558870352e-01  3.5797710757329032e-01  3.6387915088218736e-01  3.8076531658532764e-01  4.0668234212337107e-01  4.3918106266474438e-01  4.7590101922845324e-01  5.1485811002976367e-01  5.5420333543215250e-01  5.2913235098324596e-01  4.8544284886560241e-01  4.4157412015623121e-01  3.9944644891062692e-01  3.6133175369781129e-01  3.3020751298709888e-01  3.0950600019368024e-01  3.0222381385965869e-01  3.0958588538283766e-01  3.3034357324288810e-01  3.6149295091941136e-01  3.9960775305991142e-01  4.4172138985405279e-01  4.8557141024134909e-01  5.2919090988561368e-01  5.0671106230472052e-01  4.5881398223612213e-01  4.0993310576072478e-01  3.6196883204372782e-01  3.1734122693377004e-01  2.7963138259350223e-01  2.5364437493017594e-01  2.4428985460384389e-01  2.5376386665291767e-01  2.7981461171589295e-01  3.1755277731852594e-01  3.6217809777868182e-01  4.1011723113612569e-01  4.5896821658755477e-01  5.0677841907859611e-01  4.8785774917168345e-01  4.3611183468953185e-01  3.8244003613647531e-01  3.2853505080825984e-01  2.7666349164367710e-01  2.3069422264968731e-01  1.9710313692582201e-01  1.8447681949199010e-01  1.9731032318615679e-01  2.3094018363707342e-01  2.7692704834764226e-01  3.2879406958640978e-01  3.8266264511806736e-01  4.3629202217192098e-01  4.8793360055604690e-01  4.7352841508040272e-01  4.1863984296200879e-01  3.6088633563467465e-01  3.0158118014854035e-01  2.4239351329385098e-01  1.8662473292479900e-01  1.4160391630246574e-01  1.2304649631898971e-01  1.4205569701615109e-01  1.8695491951681700e-01  2.4271500621750888e-01  3.0187890998038758e-01  3.6114280395296555e-01  4.1884255033195705e-01  4.7361141205749613e-01  4.6455132976405966e-01  4.0758950935969290e-01  3.4704697874828894e-01  2.8383533340247502e-01  2.1878298568563595e-01  1.5341957164706527e-01  9.1797953083979908e-02  5.6383897773091600e-02  9.3088957794753596e-02  1.5394594396390318e-01  2.1915213586460716e-01  2.8415510284024470e-01  3.4732495434745209e-01  4.0780675507668362e-01  4.6463892752639036e-01  4.6149597837581907e-01  4.0381452686105296e-01  3.4228173078009749e-01  2.7763618218157293e-01  2.1029946018918280e-01  1.4054293190313297e-01  7.4516025068414246e-03  -1.1772579780120529e-02  6.9208292850458208e-02  1.4072595817944322e-01  2.1016176928766453e-01  2.7730245356857014e-01  3.4174325958960744e-01  4.0305336767499955e-01  4.6121671759906890e-01  4.6456543832800262e-01  4.0762507690944966e-01  3.4710253933747126e-01  2.8392116332700462e-01  2.1893770211734023e-01  1.5379344277435589e-01  9.2935705613702860e-02  5.9441923892607530e-02  5.4175213550995749e-02  6.1445446516688811e-02  7.4780248644334565e-02  8.8452892676946657e-02  1.0201462637836187e-01  1.1344903881565543e-01  2.3286591897903430e-01  4.7355461878051291e-01  4.1870446228638347e-01  3.6098458536836808e-01  3.0172609558835084e-01  2.4260519783572923e-01  1.8692976550360721e-01  1.4216864064342086e-01  1.2337664436625008e-01  1.4196997257998997e-01  1.8682450108616686e-01  2.4238233668852913e-01  3.0134656200091697e-01  3.6041480576196222e-01  4.1793290209818867e-01  4.7327842580227036e-01  4.8789281553507069e-01  4.3619572198046214e-01  3.8256398584304713e-01  3.2871332597168673e-01  2.7690016528983957e-01  2.3100118374514614e-01  1.9749389412989576e-01  1.8480357441460152e-01  1.9753632241121208e-01  2.3116081363145613e-01  2.7711382966321585e-01  3.2894156961206344e-01  3.8276888078679266e-01  4.3636642837577766e-01  4.8796518801180244e-01  5.0675152440884152e-01  4.5890757912943081e-01  4.1006651649749010e-01  3.6215513681586781e-01  3.1758578044819280e-01  2.7992950120819637e-01  2.5397933597188505e-01  2.4460931037878419e-01  2.5404285955198369e-01  2.8006307896571569e-01  3.1776308895403627e-01  3.6234149003210175e-01  4.1023650959769264e-01  4.5905309327308275e-01  5.0681461295960417e-01  5.2917517635091893e-01  4.8553866781620436e-01  4.4170482476608569e-01  3.9962237105163301e-01  3.6156046539100989e-01  3.3048538167852554e-01  3.0980959096807165e-01  3.0252559823791364e-01  3.0986612589296131e-01  3.3059363755383259e-01  3.6169907971036458e-01  3.9976765373170137e-01  4.4184126155197784e-01  4.8565983773527266e-01  5.2922875691013704e-01  5.5419604057961080e-01  5.1484575658926157e-01  4.7590682459863043e-01  4.3921639192683043e-01  4.0676187625951438e-01  3.8090372628731817e-01  3.6408343615126298e-01  3.5824057702170203e-01  3.6412701238244027e-01  3.8098422142801830e-01  4.0686537766445785e-01  4.3932716353019952e-01  4.7601452510028630e-01  5.1494509460158200e-01  5.5424064980082877e-01  5.8091436065742419e-01  5.4573612799392579e-01  5.1139107843071208e-01  4.7953435950535100e-01  4.5184138419503245e-01  4.3016079305282684e-01  4.1626699332141209e-01  4.1148208817243681e-01  4.1629891239455574e-01  4.3021904053433718e-01  4.5191694151616357e-01  4.7961794967673244e-01  5.1147543325531963e-01  5.4581651645259188e-01  5.8095073455646595e-01  6.0854623282568487e-01  5.7698269978703909e-01  5.4679645249423814e-01  5.1915650381634693e-01  4.9545000957224417e-01  4.7712531092501420e-01  4.6550036037160730e-01  4.6151585157437097e-01  4.6551445116453083e-01  4.7715099107659026e-01  4.9548326838287532e-01  5.1919320868212526e-01  5.4683335008020550e-01  5.7701767092235567e-01  6.0855306251720720e-01  </DataArray> 
</PointData> 
</Piece>
</UnstructuredGrid>
</VTKFile>