<?xml version="1.0"?>
<VTKFile type="UnstructuredGrid"  version="0.1"  >
<UnstructuredGrid>
<Piece  NumberOfPoints="64" NumberOfCells="98">
<Points>
<DataArray  type="Float64"  NumberOfComponents="3"  format="ascii">0 0 0  0.1428571428571428 0 0  0.2857142857142857 0 0  0.4285714285714285 0 0  0.5714285714285714 0 0  0.7142857142857143 0 0  0.8571428571428571 0 0  1 0 0  0 0.1428571428571428 0  0.1428571428571428 0.1428571428571428 0  0.2857142857142857 0.1428571428571428 0  0.4285714285714285 0.1428571428571428 0  0.5714285714285714 0.1428571428571428 0  0.7142857142857143 0.1428571428571428 0  0.8571428571428571 0.1428571428571428 0  1 0.1428571428571428 0  0 0.2857142857142857 0  0.1428571428571428 0.2857142857142857 0  0.2857142857142857 0.2857142857142857 0  0.4285714285714285 0.2857142857142857 0  0.5714285714285714 0.2857142857142857 0  0.7142857142857143 0.2857142857142857 0  0.8571428571428571 0.2857142857142857 0  1 0.2857142857142857 0  0 0.4285714285714285 0  0.1428571428571428 0.4285714285714285 0  0.2857142857142857 0.4285714285714285 0  0.4285714285714285 0.4285714285714285 0  0.5714285714285714 0.4285714285714285 0  0.7142857142857143 0.4285714285714285 0  0.8571428571428571 0.4285714285714285 0  1 0.4285714285714285 0  0 0.5714285714285714 0  0.1428571428571428 0.5714285714285714 0  0.2857142857142857 0.5714285714285714 0  0.4285714285714285 0.5714285714285714 0  0.5714285714285714 0.5714285714285714 0  0.7142857142857143 0.5714285714285714 0  0.8571428571428571 0.5714285714285714 0  1 0.5714285714285714 0  0 0.7142857142857143 0  0.1428571428571428 0.7142857142857143 0  0.2857142857142857 0.7142857142857143 0  0.4285714285714285 0.7142857142857143 0  0.5714285714285714 0.7142857142857143 0  0.7142857142857143 0.7142857142857143 0  0.8571428571428571 0.7142857142857143 0  1 0.7142857142857143 0  0 0.8571428571428571 0  0.1428571428571428 0.8571428571428571 0  0.2857142857142857 0.8571428571428571 0  0.4285714285714285 0.8571428571428571 0  0.5714285714285714 0.8571428571428571 0  0.7142857142857143 0.8571428571428571 0  0.8571428571428571 0.8571428571428571 0  1 0.8571428571428571 0  0 1 0  0.1428571428571428 1 0  0.2857142857142857 1 0  0.4285714285714285 1 0  0.5714285714285714 1 0  0.7142857142857143 1 0  0.8571428571428571 1 0  1 1 0  </DataArray>
</Points>
<Cells>
<DataArray  type="UInt32"  Name="connectivity"  format="ascii">0 1 9  0 8 9  1 2 10  1 9 10  2 3 11  2 10 11  3 4 12  3 11 12  4 5 13  4 12 13  5 6 14  5 13 14  6 7 15  6 14 15  8 9 17  8 16 17  9 10 18  9 17 18  10 11 19  10 18 19  11 12 20  11 19 20  12 13 21  12 20 21  13 14 22  13 21 22  14 15 23  14 22 23  16 17 25  16 24 25  17 18 26  17 25 26  18 19 27  18 26 27  19 20 28  19 27 28  20 21 29  20 28 29  21 22 30  21 29 30  22 23 31  22 30 31  24 25 33  24 32 33  25 26 34  25 33 34  26 27 35  26 34 35  27 28 36  27 35 36  28 29 37  28 36 37  29 30 38  29 37 38  30 31 39  30 38 39  32 33 41  32 40 41  33 34 42  33 41 42  34 35 43  34 42 43  35 36 44  35 43 44  36 37 45  36 44 45  37 38 46  37 45 46  38 39 47  38 46 47  40 41 49  40 48 49  41 42 50  41 49 50  42 43 51  42 50 51  43 44 52  43 51 52  44 45 53  44 52 53  45 46 54  45 53 54  46 47 55  46 54 55  48 49 57  48 56 57  49 50 58  49 57 58  50 51 59  50 58 59  51 52 60  51 59 60  52 53 61  52 60 61  53 54 62  53 61 62  54 55 63  54 62 63  </DataArray>
<DataArray  type="UInt32"  Name="offsets"  format="ascii">3 6 9 12 15 18 21 24 27 30 33 36 39 42 45 48 51 54 57 60 63 66 69 72 75 78 81 84 87 90 93 96 99 102 105 108 111 114 117 120 123 126 129 132 135 138 141 144 147 150 153 156 159 162 165 168 171 174 177 180 183 186 189 192 195 198 201 204 207 210 213 216 219 222 225 228 231 234 237 240 243 246 249 252 255 258 261 264 267 270 273 276 279 282 285 288 291 294 </DataArray>
<DataArray  type="UInt8"  Name="types"  format="ascii">5 5 5 5 5 5 5 5 5 5 5 5 5 5 5 5 5 5 5 5 5 5 5 5 5 5 5 5 5 5 5 5 5 5 5 5 5 5 5 5 5 5 5 5 5 5 5 5 5 5 5 5 5 5 5 5 5 5 5 5 5 5 5 5 5 5 5 5 5 5 5 5 5 5 5 5 5 5 5 5 5 5 5 5 5 5 5 5 5 5 5 5 5 5 5 5 5 5 </DataArray>
</Cells>
<PointData  Scalars="f_9"> 
<DataArray  type="Float64"  Name="f_9"  format="ascii">-7.9314785696110647e-04  -2.7335329796089282e-03  -3.6655280354823674e-03  -3.2821549271769132e-03  -3.7253233229552576e-03  -1.7690163682658612e-03  -4.0516710649772221e-04  1.9053452080308898e-04  -6.2716565629324247e-02  -8.5917191173923768e-02  -1.1474911896647910e-01  -1.3472380732896624e-01  -1.3692026109823910e-01  -1.1301394838619126e-01  -8.5250861915435738e-02  -6.2857376630674811e-02  -1.5228931871904353e-01  -2.2629826831068950e-01  -2.8427257164430048e-01  -2.8610950175845179e-01  -2.8607595109128497e-01  -2.8488542568356201e-01  -2.2447208618038969e-01  -1.5252718758209313e-01  -2.5595825783510229e-01  -4.0848368163938442e-01  -4.2886203346137475e-01  -4.2855605969544558e-01  -4.2862745146109205e-01  -4.2864928445155182e-01  -4.0980456564594731e-01  -2.5623047500371338e-01  -3.4138884345451315e-01  -5.4458732329345516e-01  -5.7138692818209091e-01  -5.7140563603783323e-01  -5.7143891669387670e-01  -5.7306871626322842e-01  -5.4390719317047442e-01  -3.4147201166091268e-01  -3.8111345453957307e-01  -5.6429484731933321e-01  -7.1616541601440120e-01  -7.1525842995856048e-01  -7.1666388930469771e-01  -7.1178869332078154e-01  -5.6427481521062028e-01  -3.8089067761254053e-01  -3.7733501057206653e-01  -5.1191845141660186e-01  -6.8069870771518481e-01  -8.0990429621456783e-01  -8.0892447751466579e-01  -6.8080075283983510e-01  -5.1367030574850092e-01  -3.7701972427067060e-01  -3.4884258824313574e-01  -4.4074016377965214e-01  -5.3470307805236728e-01  -5.9988871552694567e-01  -6.0093372387674227e-01  -5.3704692652567887e-01  -4.4324129349661151e-01  -3.4977548279438991e-01  </DataArray> 
</PointData> 
</Piece>
</UnstructuredGrid>
</VTKFile>