<?xml version="1.0"?>
<VTKFile type="UnstructuredGrid"  version="0.1"  >
<UnstructuredGrid>
<Piece  NumberOfPoints="5101" NumberOfCells="10000">
<Points>
<DataArray  type="Float64"  NumberOfComponents="3"  format="ascii">0 0 0  0.2 0 0  0.4 0 0  0.6 0 0  0.8 0 0  1 0 0  1.2 0 0  1.4 0 0  1.6 0 0  1.8 0 0  2 0 0  2.2 0 0  2.4 0 0  2.6 0 0  2.8 0 0  3 0 0  3.2 0 0  3.4 0 0  3.6 0 0  3.8 0 0  4 0 0  4.2 0 0  4.4 0 0  4.6 0 0  4.8 0 0  5 0 0  5.2 0 0  5.4 0 0  5.6 0 0  5.8 0 0  6 0 0  6.2 0 0  6.4 0 0  6.6 0 0  6.8 0 0  7 0 0  7.2 0 0  7.4 0 0  7.6 0 0  7.8 0 0  8 0 0  8.199999999999999 0 0  8.4 0 0  8.6 0 0  8.800000000000001 0 0  9 0 0  9.199999999999999 0 0  9.4 0 0  9.6 0 0  9.800000000000001 0 0  10 0 0  0 0.2 0  0.2 0.2 0  0.4 0.2 0  0.6 0.2 0  0.8 0.2 0  1 0.2 0  1.2 0.2 0  1.4 0.2 0  1.6 0.2 0  1.8 0.2 0  2 0.2 0  2.2 0.2 0  2.4 0.2 0  2.6 0.2 0  2.8 0.2 0  3 0.2 0  3.2 0.2 0  3.4 0.2 0  3.6 0.2 0  3.8 0.2 0  4 0.2 0  4.2 0.2 0  4.4 0.2 0  4.6 0.2 0  4.8 0.2 0  5 0.2 0  5.2 0.2 0  5.4 0.2 0  5.6 0.2 0  5.8 0.2 0  6 0.2 0  6.2 0.2 0  6.4 0.2 0  6.6 0.2 0  6.8 0.2 0  7 0.2 0  7.2 0.2 0  7.4 0.2 0  7.6 0.2 0  7.8 0.2 0  8 0.2 0  8.199999999999999 0.2 0  8.4 0.2 0  8.6 0.2 0  8.800000000000001 0.2 0  9 0.2 0  9.199999999999999 0.2 0  9.4 0.2 0  9.6 0.2 0  9.800000000000001 0.2 0  10 0.2 0  0 0.4 0  0.2 0.4 0  0.4 0.4 0  0.6 0.4 0  0.8 0.4 0  1 0.4 0  1.2 0.4 0  1.4 0.4 0  1.6 0.4 0  1.8 0.4 0  2 0.4 0  2.2 0.4 0  2.4 0.4 0  2.6 0.4 0  2.8 0.4 0  3 0.4 0  3.2 0.4 0  3.4 0.4 0  3.6 0.4 0  3.8 0.4 0  4 0.4 0  4.2 0.4 0  4.4 0.4 0  4.6 0.4 0  4.8 0.4 0  5 0.4 0  5.2 0.4 0  5.4 0.4 0  5.6 0.4 0  5.8 0.4 0  6 0.4 0  6.2 0.4 0  6.4 0.4 0  6.6 0.4 0  6.8 0.4 0  7 0.4 0  7.2 0.4 0  7.4 0.4 0  7.6 0.4 0  7.8 0.4 0  8 0.4 0  8.199999999999999 0.4 0  8.4 0.4 0  8.6 0.4 0  8.800000000000001 0.4 0  9 0.4 0  9.199999999999999 0.4 0  9.4 0.4 0  9.6 0.4 0  9.800000000000001 0.4 0  10 0.4 0  0 0.6 0  0.2 0.6 0  0.4 0.6 0  0.6 0.6 0  0.8 0.6 0  1 0.6 0  1.2 0.6 0  1.4 0.6 0  1.6 0.6 0  1.8 0.6 0  2 0.6 0  2.2 0.6 0  2.4 0.6 0  2.6 0.6 0  2.8 0.6 0  3 0.6 0  3.2 0.6 0  3.4 0.6 0  3.6 0.6 0  3.8 0.6 0  4 0.6 0  4.2 0.6 0  4.4 0.6 0  4.6 0.6 0  4.8 0.6 0  5 0.6 0  5.2 0.6 0  5.4 0.6 0  5.6 0.6 0  5.8 0.6 0  6 0.6 0  6.2 0.6 0  6.4 0.6 0  6.6 0.6 0  6.8 0.6 0  7 0.6 0  7.2 0.6 0  7.4 0.6 0  7.6 0.6 0  7.8 0.6 0  8 0.6 0  8.199999999999999 0.6 0  8.4 0.6 0  8.6 0.6 0  8.800000000000001 0.6 0  9 0.6 0  9.199999999999999 0.6 0  9.4 0.6 0  9.6 0.6 0  9.800000000000001 0.6 0  10 0.6 0  0 0.8 0  0.2 0.8 0  0.4 0.8 0  0.6 0.8 0  0.8 0.8 0  1 0.8 0  1.2 0.8 0  1.4 0.8 0  1.6 0.8 0  1.8 0.8 0  2 0.8 0  2.2 0.8 0  2.4 0.8 0  2.6 0.8 0  2.8 0.8 0  3 0.8 0  3.2 0.8 0  3.4 0.8 0  3.6 0.8 0  3.8 0.8 0  4 0.8 0  4.2 0.8 0  4.4 0.8 0  4.6 0.8 0  4.8 0.8 0  5 0.8 0  5.2 0.8 0  5.4 0.8 0  5.6 0.8 0  5.8 0.8 0  6 0.8 0  6.2 0.8 0  6.4 0.8 0  6.6 0.8 0  6.8 0.8 0  7 0.8 0  7.2 0.8 0  7.4 0.8 0  7.6 0.8 0  7.8 0.8 0  8 0.8 0  8.199999999999999 0.8 0  8.4 0.8 0  8.6 0.8 0  8.800000000000001 0.8 0  9 0.8 0  9.199999999999999 0.8 0  9.4 0.8 0  9.6 0.8 0  9.800000000000001 0.8 0  10 0.8 0  0 1 0  0.2 1 0  0.4 1 0  0.6 1 0  0.8 1 0  1 1 0  1.2 1 0  1.4 1 0  1.6 1 0  1.8 1 0  2 1 0  2.2 1 0  2.4 1 0  2.6 1 0  2.8 1 0  3 1 0  3.2 1 0  3.4 1 0  3.6 1 0  3.8 1 0  4 1 0  4.2 1 0  4.4 1 0  4.6 1 0  4.8 1 0  5 1 0  5.2 1 0  5.4 1 0  5.6 1 0  5.8 1 0  6 1 0  6.2 1 0  6.4 1 0  6.6 1 0  6.8 1 0  7 1 0  7.2 1 0  7.4 1 0  7.6 1 0  7.8 1 0  8 1 0  8.199999999999999 1 0  8.4 1 0  8.6 1 0  8.800000000000001 1 0  9 1 0  9.199999999999999 1 0  9.4 1 0  9.6 1 0  9.800000000000001 1 0  10 1 0  0 1.2 0  0.2 1.2 0  0.4 1.2 0  0.6 1.2 0  0.8 1.2 0  1 1.2 0  1.2 1.2 0  1.4 1.2 0  1.6 1.2 0  1.8 1.2 0  2 1.2 0  2.2 1.2 0  2.4 1.2 0  2.6 1.2 0  2.8 1.2 0  3 1.2 0  3.2 1.2 0  3.4 1.2 0  3.6 1.2 0  3.8 1.2 0  4 1.2 0  4.2 1.2 0  4.4 1.2 0  4.6 1.2 0  4.8 1.2 0  5 1.2 0  5.2 1.2 0  5.4 1.2 0  5.6 1.2 0  5.8 1.2 0  6 1.2 0  6.2 1.2 0  6.4 1.2 0  6.6 1.2 0  6.8 1.2 0  7 1.2 0  7.2 1.2 0  7.4 1.2 0  7.6 1.2 0  7.8 1.2 0  8 1.2 0  8.199999999999999 1.2 0  8.4 1.2 0  8.6 1.2 0  8.800000000000001 1.2 0  9 1.2 0  9.199999999999999 1.2 0  9.4 1.2 0  9.6 1.2 0  9.800000000000001 1.2 0  10 1.2 0  0 1.4 0  0.2 1.4 0  0.4 1.4 0  0.6 1.4 0  0.8 1.4 0  1 1.4 0  1.2 1.4 0  1.4 1.4 0  1.6 1.4 0  1.8 1.4 0  2 1.4 0  2.2 1.4 0  2.4 1.4 0  2.6 1.4 0  2.8 1.4 0  3 1.4 0  3.2 1.4 0  3.4 1.4 0  3.6 1.4 0  3.8 1.4 0  4 1.4 0  4.2 1.4 0  4.4 1.4 0  4.6 1.4 0  4.8 1.4 0  5 1.4 0  5.2 1.4 0  5.4 1.4 0  5.6 1.4 0  5.8 1.4 0  6 1.4 0  6.2 1.4 0  6.4 1.4 0  6.6 1.4 0  6.8 1.4 0  7 1.4 0  7.2 1.4 0  7.4 1.4 0  7.6 1.4 0  7.8 1.4 0  8 1.4 0  8.199999999999999 1.4 0  8.4 1.4 0  8.6 1.4 0  8.800000000000001 1.4 0  9 1.4 0  9.199999999999999 1.4 0  9.4 1.4 0  9.6 1.4 0  9.800000000000001 1.4 0  10 1.4 0  0 1.6 0  0.2 1.6 0  0.4 1.6 0  0.6 1.6 0  0.8 1.6 0  1 1.6 0  1.2 1.6 0  1.4 1.6 0  1.6 1.6 0  1.8 1.6 0  2 1.6 0  2.2 1.6 0  2.4 1.6 0  2.6 1.6 0  2.8 1.6 0  3 1.6 0  3.2 1.6 0  3.4 1.6 0  3.6 1.6 0  3.8 1.6 0  4 1.6 0  4.2 1.6 0  4.4 1.6 0  4.6 1.6 0  4.8 1.6 0  5 1.6 0  5.2 1.6 0  5.4 1.6 0  5.6 1.6 0  5.8 1.6 0  6 1.6 0  6.2 1.6 0  6.4 1.6 0  6.6 1.6 0  6.8 1.6 0  7 1.6 0  7.2 1.6 0  7.4 1.6 0  7.6 1.6 0  7.8 1.6 0  8 1.6 0  8.199999999999999 1.6 0  8.4 1.6 0  8.6 1.6 0  8.800000000000001 1.6 0  9 1.6 0  9.199999999999999 1.6 0  9.4 1.6 0  9.6 1.6 0  9.800000000000001 1.6 0  10 1.6 0  0 1.8 0  0.2 1.8 0  0.4 1.8 0  0.6 1.8 0  0.8 1.8 0  1 1.8 0  1.2 1.8 0  1.4 1.8 0  1.6 1.8 0  1.8 1.8 0  2 1.8 0  2.2 1.8 0  2.4 1.8 0  2.6 1.8 0  2.8 1.8 0  3 1.8 0  3.2 1.8 0  3.4 1.8 0  3.6 1.8 0  3.8 1.8 0  4 1.8 0  4.2 1.8 0  4.4 1.8 0  4.6 1.8 0  4.8 1.8 0  5 1.8 0  5.2 1.8 0  5.4 1.8 0  5.6 1.8 0  5.8 1.8 0  6 1.8 0  6.2 1.8 0  6.4 1.8 0  6.6 1.8 0  6.8 1.8 0  7 1.8 0  7.2 1.8 0  7.4 1.8 0  7.6 1.8 0  7.8 1.8 0  8 1.8 0  8.199999999999999 1.8 0  8.4 1.8 0  8.6 1.8 0  8.800000000000001 1.8 0  9 1.8 0  9.199999999999999 1.8 0  9.4 1.8 0  9.6 1.8 0  9.800000000000001 1.8 0  10 1.8 0  0 2 0  0.2 2 0  0.4 2 0  0.6 2 0  0.8 2 0  1 2 0  1.2 2 0  1.4 2 0  1.6 2 0  1.8 2 0  2 2 0  2.2 2 0  2.4 2 0  2.6 2 0  2.8 2 0  3 2 0  3.2 2 0  3.4 2 0  3.6 2 0  3.8 2 0  4 2 0  4.2 2 0  4.4 2 0  4.6 2 0  4.8 2 0  5 2 0  5.2 2 0  5.4 2 0  5.6 2 0  5.8 2 0  6 2 0  6.2 2 0  6.4 2 0  6.6 2 0  6.8 2 0  7 2 0  7.2 2 0  7.4 2 0  7.6 2 0  7.8 2 0  8 2 0  8.199999999999999 2 0  8.4 2 0  8.6 2 0  8.800000000000001 2 0  9 2 0  9.199999999999999 2 0  9.4 2 0  9.6 2 0  9.800000000000001 2 0  10 2 0  0 2.2 0  0.2 2.2 0  0.4 2.2 0  0.6 2.2 0  0.8 2.2 0  1 2.2 0  1.2 2.2 0  1.4 2.2 0  1.6 2.2 0  1.8 2.2 0  2 2.2 0  2.2 2.2 0  2.4 2.2 0  2.6 2.2 0  2.8 2.2 0  3 2.2 0  3.2 2.2 0  3.4 2.2 0  3.6 2.2 0  3.8 2.2 0  4 2.2 0  4.2 2.2 0  4.4 2.2 0  4.6 2.2 0  4.8 2.2 0  5 2.2 0  5.2 2.2 0  5.4 2.2 0  5.6 2.2 0  5.8 2.2 0  6 2.2 0  6.2 2.2 0  6.4 2.2 0  6.6 2.2 0  6.8 2.2 0  7 2.2 0  7.2 2.2 0  7.4 2.2 0  7.6 2.2 0  7.8 2.2 0  8 2.2 0  8.199999999999999 2.2 0  8.4 2.2 0  8.6 2.2 0  8.800000000000001 2.2 0  9 2.2 0  9.199999999999999 2.2 0  9.4 2.2 0  9.6 2.2 0  9.800000000000001 2.2 0  10 2.2 0  0 2.4 0  0.2 2.4 0  0.4 2.4 0  0.6 2.4 0  0.8 2.4 0  1 2.4 0  1.2 2.4 0  1.4 2.4 0  1.6 2.4 0  1.8 2.4 0  2 2.4 0  2.2 2.4 0  2.4 2.4 0  2.6 2.4 0  2.8 2.4 0  3 2.4 0  3.2 2.4 0  3.4 2.4 0  3.6 2.4 0  3.8 2.4 0  4 2.4 0  4.2 2.4 0  4.4 2.4 0  4.6 2.4 0  4.8 2.4 0  5 2.4 0  5.2 2.4 0  5.4 2.4 0  5.6 2.4 0  5.8 2.4 0  6 2.4 0  6.2 2.4 0  6.4 2.4 0  6.6 2.4 0  6.8 2.4 0  7 2.4 0  7.2 2.4 0  7.4 2.4 0  7.6 2.4 0  7.8 2.4 0  8 2.4 0  8.199999999999999 2.4 0  8.4 2.4 0  8.6 2.4 0  8.800000000000001 2.4 0  9 2.4 0  9.199999999999999 2.4 0  9.4 2.4 0  9.6 2.4 0  9.800000000000001 2.4 0  10 2.4 0  0 2.6 0  0.2 2.6 0  0.4 2.6 0  0.6 2.6 0  0.8 2.6 0  1 2.6 0  1.2 2.6 0  1.4 2.6 0  1.6 2.6 0  1.8 2.6 0  2 2.6 0  2.2 2.6 0  2.4 2.6 0  2.6 2.6 0  2.8 2.6 0  3 2.6 0  3.2 2.6 0  3.4 2.6 0  3.6 2.6 0  3.8 2.6 0  4 2.6 0  4.2 2.6 0  4.4 2.6 0  4.6 2.6 0  4.8 2.6 0  5 2.6 0  5.2 2.6 0  5.4 2.6 0  5.6 2.6 0  5.8 2.6 0  6 2.6 0  6.2 2.6 0  6.4 2.6 0  6.6 2.6 0  6.8 2.6 0  7 2.6 0  7.2 2.6 0  7.4 2.6 0  7.6 2.6 0  7.8 2.6 0  8 2.6 0  8.199999999999999 2.6 0  8.4 2.6 0  8.6 2.6 0  8.800000000000001 2.6 0  9 2.6 0  9.199999999999999 2.6 0  9.4 2.6 0  9.6 2.6 0  9.800000000000001 2.6 0  10 2.6 0  0 2.8 0  0.2 2.8 0  0.4 2.8 0  0.6 2.8 0  0.8 2.8 0  1 2.8 0  1.2 2.8 0  1.4 2.8 0  1.6 2.8 0  1.8 2.8 0  2 2.8 0  2.2 2.8 0  2.4 2.8 0  2.6 2.8 0  2.8 2.8 0  3 2.8 0  3.2 2.8 0  3.4 2.8 0  3.6 2.8 0  3.8 2.8 0  4 2.8 0  4.2 2.8 0  4.4 2.8 0  4.6 2.8 0  4.8 2.8 0  5 2.8 0  5.2 2.8 0  5.4 2.8 0  5.6 2.8 0  5.8 2.8 0  6 2.8 0  6.2 2.8 0  6.4 2.8 0  6.6 2.8 0  6.8 2.8 0  7 2.8 0  7.2 2.8 0  7.4 2.8 0  7.6 2.8 0  7.8 2.8 0  8 2.8 0  8.199999999999999 2.8 0  8.4 2.8 0  8.6 2.8 0  8.800000000000001 2.8 0  9 2.8 0  9.199999999999999 2.8 0  9.4 2.8 0  9.6 2.8 0  9.800000000000001 2.8 0  10 2.8 0  0 3 0  0.2 3 0  0.4 3 0  0.6 3 0  0.8 3 0  1 3 0  1.2 3 0  1.4 3 0  1.6 3 0  1.8 3 0  2 3 0  2.2 3 0  2.4 3 0  2.6 3 0  2.8 3 0  3 3 0  3.2 3 0  3.4 3 0  3.6 3 0  3.8 3 0  4 3 0  4.2 3 0  4.4 3 0  4.6 3 0  4.8 3 0  5 3 0  5.2 3 0  5.4 3 0  5.6 3 0  5.8 3 0  6 3 0  6.2 3 0  6.4 3 0  6.6 3 0  6.8 3 0  7 3 0  7.2 3 0  7.4 3 0  7.6 3 0  7.8 3 0  8 3 0  8.199999999999999 3 0  8.4 3 0  8.6 3 0  8.800000000000001 3 0  9 3 0  9.199999999999999 3 0  9.4 3 0  9.6 3 0  9.800000000000001 3 0  10 3 0  0 3.2 0  0.2 3.2 0  0.4 3.2 0  0.6 3.2 0  0.8 3.2 0  1 3.2 0  1.2 3.2 0  1.4 3.2 0  1.6 3.2 0  1.8 3.2 0  2 3.2 0  2.2 3.2 0  2.4 3.2 0  2.6 3.2 0  2.8 3.2 0  3 3.2 0  3.2 3.2 0  3.4 3.2 0  3.6 3.2 0  3.8 3.2 0  4 3.2 0  4.2 3.2 0  4.4 3.2 0  4.6 3.2 0  4.8 3.2 0  5 3.2 0  5.2 3.2 0  5.4 3.2 0  5.6 3.2 0  5.8 3.2 0  6 3.2 0  6.2 3.2 0  6.4 3.2 0  6.6 3.2 0  6.8 3.2 0  7 3.2 0  7.2 3.2 0  7.4 3.2 0  7.6 3.2 0  7.8 3.2 0  8 3.2 0  8.199999999999999 3.2 0  8.4 3.2 0  8.6 3.2 0  8.800000000000001 3.2 0  9 3.2 0  9.199999999999999 3.2 0  9.4 3.2 0  9.6 3.2 0  9.800000000000001 3.2 0  10 3.2 0  0 3.4 0  0.2 3.4 0  0.4 3.4 0  0.6 3.4 0  0.8 3.4 0  1 
[...]
<PointData  Scalars="f_9"> 
<DataArray  type="Float64"  Name="f_9"  format="ascii">-1.0078094213710572e-04  2.4495736261973542e-04  1.1438847724538308e-04  6.1740999612019937e-05  3.2163760472921116e-05  1.6064924522071432e-05  7.6099575032463660e-06  3.3987549630758033e-06  1.4255117914883465e-06  5.5995811661188965e-07  2.0561560260738733e-07  7.0487640874438162e-08  2.2540196899433256e-08  6.7199374310266910e-09  1.8673222680803224e-09  4.8359922423528675e-10  1.1673189054343376e-10  2.6265849611092940e-11  5.5097557951048616e-12  1.0769841355195795e-12  1.9542274836729866e-13  3.1862190007025210e-14  3.4574647391784557e-15  -1.1601256657807839e-15  -1.8532109339133546e-15  -1.9592192248446016e-15  -2.0597774008613570e-15  -2.7545276816583476e-15  -7.3514308823621851e-15  -3.5585324580290246e-14  -1.9883946607832980e-13  -1.0802668998319705e-12  -5.5128579330971458e-12  -2.6268789296839568e-11  -1.1673453273635246e-10  -4.8360163193143663e-10  -1.8673244308439192e-09  -6.7199393768348273e-09  -2.2540198743722674e-08  -7.0487642557330938e-08  -2.0561560409897109e-07  -5.5995811806410784e-07  -1.4255117926912887e-06  -3.3987549642849640e-06  -7.6099575044797967e-06  -1.6064924523230339e-05  -3.2163760473965345e-05  -6.1740999613180128e-05  -1.1438847724654216e-04  -2.4495736262134535e-04  1.0078094213510732e-04  -1.5786126136628806e-03  -6.6327684050572770e-04  -3.4773969089455783e-04  -1.8314942676059059e-04  -9.4386317059542819e-05  -4.6807567857065421e-05  -2.2116072636730689e-05  -9.8903649462869916e-06  -4.1672714595988089e-06  -1.6490481057719703e-06  -6.1146427185222164e-07  -2.1211708334616265e-07  -6.8766994031310097e-08  -2.0820344854838168e-08  -5.8848554139776604e-09  -1.5526185492676760e-09  -3.8238329338837245e-10  -8.7928399953744584e-11  -1.8884421688756451e-11  -3.7900535429524487e-12  -7.1142269931546458e-13  -1.2518200058898697e-13  -2.0914762841528147e-14  -3.5948152820371879e-15  -8.9895159458702723e-16  -4.5432678886375701e-16  -7.7864689522476693e-18  2.6948502294694283e-15  2.0019780511094591e-14  1.2424304965917564e-13  7.1054889321528832e-13  3.7892244569392840e-12  1.8883704518563842e-11  8.7927621573020933e-11  3.8238231297050441e-10  1.5526174580504428e-09  5.8848542311509007e-09  2.0820343637234405e-08  6.8766992777122508e-08  2.1211708213787039e-07  6.1146427062351257e-07  1.6490481044977752e-06  4.1672714582211674e-06  9.8903649449113593e-06  2.2116072635529223e-05  4.6807567855745649e-05  9.4386317058144131e-05  1.8314942675927209e-04  3.4773969089180472e-04  6.6327684050471224e-04  1.5786126136634151e-03  -2.0783848773102609e-03  -1.0448485854207313e-03  -5.8854243055270542e-04  -3.2003108635055558e-04  -1.6770819051478185e-04  -8.3949283110154561e-05  -3.9870235145109448e-05  -1.7876494811563732e-05  -7.5391389263246596e-06  -2.9826198900808099e-06  -1.1047535418789995e-06  -3.8258462014886896e-07  -1.2376022202791998e-07  -3.7374469665738841e-08  -1.0533642475997115e-08  -2.7704889780816329e-09  -6.8006345645810612e-10  -1.5583300448949793e-10  -3.3345605868011762e-11  -6.6664009642364315e-12  -1.2460688668500428e-12  -2.1820627959688243e-13  -3.6127953113949237e-14  -5.9695933092573942e-15  -1.2956766193804318e-15  -5.2837047887985248e-16  2.3967373224964575e-16  4.9165979989530804e-15  3.5068682441470575e-14  2.1711653552499235e-13  1.2449972790987834e-12  6.6653419312752763e-12  3.3344482952503329e-11  1.5583184424653500e-10  6.8006222721272201e-10  2.7704877603569793e-09  1.0533641320238688e-08  3.7374468513039199e-08  1.2376022064338780e-07  3.8258461884594472e-07  1.1047535405288601e-06  2.9826198886555834e-06  7.5391389248418691e-06  1.7876494810071121e-05  3.9870235143573845e-05  8.3949283108669529e-05  1.6770819051340464e-04  3.2003108634785158e-04  5.8854243055172476e-04  1.0448485854207285e-03  2.0783848773097101e-03  -2.3530997811062387e-03  -1.2357552853726457e-03  -7.3155541024353180e-04  -4.1024556064799407e-04  -2.1913309071289075e-04  -1.1106107395609799e-04  -5.3194523232597067e-05  -2.3994483798053137e-05  -1.0164259972354721e-05  -4.0347665631866097e-06  -1.4984329814594898e-06  -5.2003148076854269e-07  -1.6852162245460439e-07  -5.0969262743220386e-08  -1.4384292646876609e-08  -3.7877734234781414e-09  -9.3079312577122868e-10  -2.1350671380529344e-10  -4.5732216437442776e-11  -9.1516162150587951e-12  -1.7121912156310698e-12  -3.0002861252289422e-13  -4.9654088349684897e-14  -8.1370546693888812e-15  -1.6887001779569695e-15  -6.2903865059513186e-16  4.3162142696756572e-16  6.8807470571946570e-15  4.8383327509379779e-14  2.9874982614705784e-13  1.7109290031827946e-12  9.1503305388491988e-12  4.5730902979094649e-11  2.1350539039695096e-10  9.3079181118612328e-10  3.7877720898533633e-09  1.4384291378484750e-08  5.0969261438259967e-08  1.6852162124255136e-07  5.2003147953857674e-07  1.4984329801006749e-06  4.0347665620380245e-06  1.0164259971245885e-05  2.3994483796802073e-05  5.3194523231269454e-05  1.1106107395473215e-04  2.1913309071014983e-04  4.1024556064714389e-04  7.3155541024369595e-04  1.2357552853712634e-03  2.3530997811055340e-03  -2.4970478539875791e-03  -1.3343530422017008e-03  -8.1091915745301439e-04  -4.6398695326508948e-04  -2.5164772389553252e-04  -1.2897576231964714e-04  -6.2289924318790886e-05  -2.8274459638063369e-05  -1.2036025959246096e-05  -4.7964684561193034e-06  -1.7870174989244934e-06  -6.2184878167537531e-07  -2.0197954544440100e-07  -6.1211105702610536e-08  -1.7305454883627845e-08  -4.5643052834173383e-09  -1.1232566436762634e-09  -2.5800186611647020e-10  -5.5332197497915527e-11  -1.1085646497988044e-11  -2.0762524436269263e-12  -3.6411951470465013e-13  -6.0233514139959599e-14  -9.8037696667427330e-15  -1.9567588651833728e-15  -6.7127943828571072e-16  6.1764883572262706e-16  8.4638670854939024e-15  5.8895435186764840e-14  3.6277373466342412e-13  2.0748757188293963e-12  1.1084268634236131e-11  5.5330810428745063e-11  2.5800047967180028e-10  1.1232553018958438e-09  4.5643039533799117e-09  1.7305453530885057e-08  6.1211104427274452e-08  2.0197954409755850e-07  6.2184878040111271e-07  1.7870174976746137e-06  4.7964684549537513e-06  1.2036025958160885e-05  2.8274459636816578e-05  6.2289924317541058e-05  1.2897576231709563e-04  2.5164772389476057e-04  4.6398695326524517e-04  8.1091915745171118e-04  1.3343530422004119e-03  2.4970478539869008e-03  -2.5704667099582489e-03  -1.3837847188458224e-03  -8.5226720283623010e-04  -4.9329413657134519e-04  -2.7024822689773146e-04  -1.3965544886241146e-04  -6.7897598511518331e-05  -3.0985835632969913e-05  -1.3248280293223313e-05  -5.2988915067204114e-06  -1.9803320819524256e-06  -6.9096694779306084e-07  -2.2495927894359473e-07  -6.8319312743939758e-08  -1.9352160493687166e-08  -5.1131498925507926e-09  -1.2603987536411075e-09  -2.8995124477402768e-10  -6.2275641939829068e-11  -1.2494103159292783e-11  -2.3430083654490952e-12  -4.1116033321075851e-13  -6.7807176431892984e-14  -1.0760088024579222e-14  -1.8708450587323638e-15  -4.0837016927752809e-16  1.0549341348392584e-15  9.9404593714366679e-15  6.6994421078422902e-14  4.1032588839282785e-13  2.3420562380747573e-12  1.2493139493296827e-11  6.2274613667851967e-11  2.8995015288431951e-10  1.2603976682815487e-09  5.1131488199896999e-09  1.9352159380343268e-08  6.8319311651803375e-08  2.2495927787181961e-07  6.9096694667629100e-07  1.9803320809123111e-06  5.2988915055097107e-06  1.3248280292073630e-05  3.0985835631875601e-05  6.7897598509148658e-05  1.3965544886159940e-04  2.7024822689783359e-04  4.9329413657013088e-04  8.5226720283491583e-04  1.3837847188444606e-03  2.5704667099576525e-03  -2.6063135688925224e-03  -1.4073021485727171e-03  -8.7247208432835377e-04  -5.0805909597270910e-04  -2.7996465106792885e-04  -1.4543394033913538e-04  -7.1029183373966660e-05  -3.2541992164053503e-05  -1.3960535917509170e-05  -5.6000934018992365e-06  -2.0982668321905357e-06  -7.3378614681992874e-07  -2.3939143711572482e-07  -7.2838974974365775e-08  -2.0668280475916529e-08  -5.4697707609188718e-09  -1.3503770675298749e-09  -3.1110499011037370e-10  -6.6913041376183721e-11  -1.3442922506493731e-11  -2.5244845873028527e-12  -4.4387848702632400e-13  -7.3606721846114503e-14  -1.2008617841438584e-14  -2.4094506771710221e-15  -8.2083157545292999e-16  7.6931570922728060e-16  1.0379081491831977e-14  7.1976147372927700e-14  4.4229619966529283e-13  2.5228738808344760e-12  1.3441289403661087e-11  6.6911394103912918e-11  3.1110340567629244e-10  1.3503754296316151e-09  5.4697692005079968e-09  2.0668278891933472e-08  7.2838973444835184e-08  2.3939143578424556e-07  7.3378614552390629e-07  2.0982668309851892e-06  5.6000934005490880e-06  1.3960535916225538e-05  3.2541992161486268e-05  7.1029183373062191e-05  1.4543394033925309e-04  2.7996465106675439e-04  5.0805909597146119e-04  8.7247208432715843e-04  1.4073021485712265e-03  2.6063135688917244e-03  -2.6229387964651213e-03  -1.4178186864743866e-03  -8.8171459386592402e-04  -5.1495976458578298e-04  -2.8463298267664182e-04  -1.4829231491721018e-04  -7.2622707601280138e-05  -3.3354821038357432e-05  -1.4341441498071208e-05  -5.7646027467516446e-06  -2.1639058532558007e-06  -7.5802572942821945e-07  -2.4768801137310383e-07  -7.5474013164460009e-08  -2.1445637025390586e-08  -5.6829698834141633e-09  -1.4047826116182945e-09  -3.2403327936386233e-10  -6.9775866851453706e-11  -1.4033996472524386e-11  -2.6381270686872889e-12  -4.6400634528230571e-13  -7.6628600925547652e-14  -1.2121265905058743e-14  -2.0503114180406278e-15  -3.8217367638593270e-16  1.2868157060752518e-15  1.1359991181243702e-14  7.5860203535560432e-14  4.6326741325476023e-13  2.6373147231622403e-12  1.4033076285746047e-11  6.9774879434924949e-11  3.2403222005497156e-10  1.4047815809767928e-09  5.6829687606577593e-09  2.1445635920787519e-08  7.5474012089887211e-08  2.4768801015608371e-07  7.5802572821563715e-07  2.1639058519575630e-06  5.7646027455555824e-06  1.4341441495653286e-05  3.3354821037594702e-05  7.2622707601445696e-05  1.4829231491609484e-04  2.8463298267544947e-04  5.1495976458461020e-04  8.8171459386466688e-04  1.4178186864729559e-03  2.6229387964644864e-03  -2.6302230150924239e-03  -1.4222136450458393e-03  -8.8566248527288682e-04  -5.1795406769370681e-04  -2.8670311658735562e-04  -1.4959079924196328e-04  -7.3364833842267448e-05  -3.3742658740196624e-05  -1.4527399450004230e-05  -5.8466424425559887e-06  -2.1972878439922552e-06  -7.7057799701478517e-07  -2.5205664681791794e-07  -7.6883184639241836e-08  -2.1867410372857297e-08  -5.8002278161564881e-09  -1.4350915409321050e-09  -3.3132381436085795e-10  -7.1409297132136303e-11  -1.4375254884027573e-11  -2.7047145610432222e-12  -4.7618740168457041e-13  -7.8795435345772866e-14  -1.2553942260740142e-14  -2.2105212625633815e-15  -4.9821204019945193e-16  1.2180279571408213e-15  1.1568361286268254e-14  7.7805295301165706e-14  4.7523487749223649e-13  2.7037293633342180e-12  1.4374123826431909e-11  7.1408179277412652e-11  3.3132265756105037e-10  1.4350903761617834e-09  5.8002266273895243e-09  2.1867409127821313e-08  7.6883183462585911e-08  2.5205664564407168e-07  7.7057799575314367e-07  2.1972878426874772e-06  5.8466424402934510e-06  1.4527399449159559e-05  3.3742658740328571e-05  7.3364833841273831e-05  1.4959079924099572e-04  2.8670311658631989e-04  5.1795406769257035e-04  8.8566248527169919e-04  1.4222136450446809e-03  2.6302230150918844e-03  -2.6332268285492615e-03  -1.4239224335834931e-03  -8.8723325492831714e-04  -5.1915959835947638e-04  -2.8755147617953296e-04  -1.5013385739464459e-04  -7.3682074333871473e-05  -3.3912182110968087e-05  -1.4610478295674794e-05  -5.8840725224776692e-06  -2.2128245801190958e-06  -7.7653084692239514e-07  -2.5416538543634266e-07  -7.7574806261384497e-08  -2.2077694993999089e-08  -5.8595659453063404e-09  -1.4506478177597841e-09  -3.3511660657722053e-10  -7.2270217858663561e-11  -1.4557349150450861e-11  -2.7407591539178893e-12  -4.8297489326030313e-13  -8.0086400293562198e-14  -1.2895542923427310e-14  -2.3849883656543179e-15  -6.4399494851402521e-16  1.0987516235391732e-15  1.1595694565137709e-14  7.8787579216831040e-14  4.8166776773703154e-13  2.7394872638810189e-12  1.4556093900748925e-11  7.2268922059800322e-11  3.3511526613253824e-10  1.4506464772180667e-09  5.8595646563590910e-09  2.2077693706028725e-08  7.7574804959817682e-08  2.5416538415176797e-07  7.7653084556200697e-07  2.2128245781110255e-06  5.8840725216957578e-06  1.4610478295805152e-05  3.3912182110071573e-05  7.3682074332828918e-05  1.5013385739358367e-04  2.8755147617854054e-04  5.1915959835840627e-04  8.8723325492708603e-04  1.4239224335820761e-03  2.6332268285485958e-03  -2.6343896373491270e-03  -1.4245380197679207e-03  -8.8781405375764158e-04  -5.1960936628948895e-04  -2.8787278993289486e-04  -1.5034317862820903e-04  -7.3806760017991661e-05  -3.3980188782115445e-05  -1.4644505578981526e-05  -5.8997208256986659e-06  -2.2194508431621100e-06  -7.7911889394971823e-07  -2.5509918168485567e-07  -7.7886494743932168e-08  -2.2174063833304658e-08  -5.8871980623440803e-09  -1.4580037567985558e-09  -3.3693653876665486e-10  -7.2689078329602323e-11  -1.4647077147618602e-11  -2.7585674440252027e-12  -4.8615374746707739e-13  -8.0522143315088470e-14  -1.2847338752737528e-14  -2.2556213624333463e-15  -5.0012945174149407e-16  1.2529723352611164e-15  1.1836039960633204e-14  7.9510771881438617e-14  4.8515760853184977e-13  2.7575776005098885e-12  1.4646061105984096e-11  7.2687958220822230e-11  3.3693542619199566e-10  1.4580025948303540e-09  5.8871968934998699e-09  2.2174062591883413e-08  7.7886493612937434e-08  2.5509918042644884e-07  7.7911889195168228e-07  2.2194508423667787e-06  5.8997208257068846e-06  1.4644505577945686e-05  3.3980188781066852e-05  7.3806760016968459e-05  1.5034317862712627e-04  2.8787278993177917e-04  5.1960936628846666e-04  8.8781405375645177e-04  1.4245380197666913e-03  2.6343896373485624e-03  -2.6348114400333842e-03  -1.4247426138452100e-03  -8.8801318234173502e-04  -5.1976460639597503e-04  -2.8798518106234344e-04  -1.5041754489341088e-04  -7.3851848067777118e-05  -3.4005253582468253e-05  -1.4657297204975630e-05  -5.9057221659145820e-06  -2.2220430391411958e-06  -7.8015122066117638e-07  -2.5547876569574860e-07  -7.8015532465590094e-08  -2.2214669872248256e-08  -5.8990406938473489e-09  -1.4612084075956698e-09  -3.3774207309296338e-10  -7.2877338935166185e-11  -1.4688018220307759e-11  -2.7668285967463047e-12  -4.8771890334958048e-13  -8.0785232561657355e-14  -1.2874348397258477e-14  -2.2487805888260477e-15  -4.8651295665724722e-16  1.2612507609491286e-15  1.1901340373279830e-14  7.9797938005651769e-14  4.8673031479828262e-13  2.7658613626409972e-12  1.4687056532980761e-11  7.2876316406208059e-11  3.3774096688744978e-10  1.4612072326121655e-09  5.8990395078624425e-09  2.2214668658000916e-08  7.8015531195814279e-08  2.5547876386085649e-07  7.8015121992272152e-07  2.2220430389674155e-06  5.9057221649125818e-06  1.4657297203976140e-05  3.4005253581410987e-05  7.3851848066658072e-05  1.5041754489228629e-04  2.8798518106132169e-04  5.1976460639484605e-04  8.8801318234067684e-04  1.4247426138438957e-03  2.6348114400328686e-03  -2.6349546427753227e-03  -1.4248050282538532e-03  -8.8807634110979570e-04  -5.1981407473265405e-04  -2.8802143909822231e-04  -1.5044188000344855e-04  -7.3866847164381411e-05  -3.4013743108397144e-05  -1.4661712958080495e-05  -5.9078348095610009e-06  -2.2229737624561324e-06  -7.8052922599624141e-07  -2.5562046931698569e-07  -7.8064623656556480e-08  -2.2230404785554404e-08  -5.9037124166937005e-09  -1.4624946096698781e-09  -3.3807081325576768e-10  -7.2955401128377423e-11  -1.4705204615843644e-11  -2.7703381374945969e-12  -4.8835003261301498e-13  -8.0865739993975246e-14  -1.2855274028437942e-14  -2.2118130894518973e-15  -4.4620774089509870e-16  1.3139576232612529e-15  1.1958394344202539e-14  7.9969404579230415e-14  4.8744995290606773e-13  2.7694518065553966e-12  1.4704336415475264e-11  7.2954498168487465e-11  3.3806985110928100e-10  1.4624935913709345e-09  5.9037113196247584e-09  2.2230403611792271e-08  7.8064621964729531e-08  2.5562046859508926e-07  7.8052922570459251e-07  2.2229737614732785e-06  5.9078348085431400e-06  1.4661712956864088e-05  3.4013743107168032e-05  7.3866847163256294e-05  1.5044188000226417e-04  2.8802143909694404e-04  5.1981407473136536e-04  8.8807634110844619e-04  1.4248050282524526e-03  2.6349546427747146e-03  -2.6350001102819621e-03  -1.4248223848379626e-03  -8.8809482495929562e-04  -5.1982858937919926e-04  -2.8803220541364310e-04  -1.5044920398523808e-04  -7.3871433022670846e-05  -3.4016384250849551e-05  -1.4663112505000043e-05  -5.9085174880794248e-06  -2.2232805178057142e-06  -7.8065631238569022e-07  -2.5566906130368073e-07  -7.8081787844354304e-08  -2.2236013104452654e-08  -5.9054089102995594e-09  -1.4629703384513333e-09  -3.3819458197239736e-10  -7.2985324342349221e-11  -1.4711949385516967e-11  -2.7717643631686168e-12  -4.8865640700501709e-13  -8.0938746915663914e-14  -1.2885242460687624e-14  -2.2420628721653312e-15  -4.7666243781913121e-16  1.2882121584734113e-15  1.1943352665362560e-14  7.9999202249637903e-14  4.8771181049896829e-13  2.7708308840716457e-12  1.4711019150894998e-11  7.2984416094263143e-11  3.3819368398032161e-10  1.4629693400437048e-09  5.9054077196292779e-09  2.2236011574165801e-08  7.8081787155248466e-08  2.5566906077642364e-07  7.8065631131776686e-07  2.2232805166363759e-06  5.9085174869320272e-06  1.4663112503698713e-05  3.4016384249827107e-05  7.3871433021514680e-05  1.5044920398412195e-04  2.8803220541248658e-04  5.1982858937795319e-04  8.8809482495800748e-04  1.4248223848363853e-03  2.6350001102811611e-03  -2.6350136052797667e-03  -1.4248267381887121e-03  -8.8809979996924053e-04  -5.1983249657668225e-04  -2.8803513920834777e-04  -1.5045122634457642e-04  -7.3872719227830830e-05  -3.4017137931842675e-05  -1.4663519371567087e-05  -5.9087198537637143e-06  -2.2233732868504825e-06  -7.8069553234282175e-07  -2.5568436445361529e-07  -7.8087303672483879e-08  -2.2237850497217709e-08  -5.9059760287199283e-09  -1.4631323874778750e-09  -3.3823755869158608e-10  -7.2995907560678673e-11  -1.4714477147587810e-11  -2.7723969626101956e-12  -4.8885582593690545e-13  -8.1054567354840752e-14  -1.2994602681219711e-14  -2.3359623697177797e-15  -5.6964795294017874e-16  1.1953621686239256e-15  1.1853757450434883e-14  7.9913923243558903e-14  4.8769675526760143e-13  2.7712284951606619e-12  1.4713321912825799e-11  7.2994823672382702e-11  3.3823653826218520e-10  1.4631313147134932e-09  5.9059747507610677e-09  2.2237849671199861e-08  7.8087302958995390e-08  2.5568436325780435e-07  7.8069553114702341e-07  2.2233732856051628e-06  5.9087198524747131e-06  1.4663519370518901e-05  3.4017137930775643e-05  7.3872719226589716e-05  1.5045122634335136e-04  2.8803513920716675e-04  5.1983249657534239e-04  8.8809979996788322e-04  1.4248267381871554e-03  2.6350136052790490e-03  -2.6350173489332268e-03  -1.4248277048722691e-03  -8.8810102596919075e-04  -5.1983345638558973e-04  -2.8803586957511777e-04  -1.5045173670880799e-04  -7.3873049096435849e-05  -3.4017334698397879e-05  -1.4663627645814987e-05  -5.9087747976043580e-06  -2.2233989995891136e-06  -7.8070663290006993e-07  -2.5568878760739094e-07  -7.8088931636798397e-08  -2.2238404548616676e-08  -5.9061496849991721e-09  -1.4631832989978836e-09  -3.3825119075689748e-10  -7.2999114144982349e-11  -1.4715064394310415e-11  -2.7723387111379744e-12  -4.8866777649109868e-13  -8.0855965911390324e-14  -1.2780174054455302e-14  -2.1239271192491365e-15  -3.5606446176922282e-16  1.4095923863907674e-15  1.2059438191970579e-14  8.0131846796026303e-14  4.8795237869801030e-13  2.7716193934119324e-12  1.4714315324992548e-11  7.2998462978036550e-11  3.3825030511984773e-10  1.4631821973281307e-09  5.9061490295572159e-09  2.2238403928557099e-08  7.8088930594376429e-08  2.5568878647018976e-07  7.8070663166360343e-07  2.2233989982763794e-06  5.9087747965932387e-06  1.4663627644589732e-05  3.4017334697100191e-05  7.3873049095154919e-05  1.5045173670746173e-04  2.8803586957384849e-04  5.19833456