<?xml version="1.0"?>
<VTKFile type="UnstructuredGrid"  version="0.1"  >
<UnstructuredGrid>
<Piece  NumberOfPoints="5101" NumberOfCells="10000">
<Points>
<DataArray  type="Float64"  NumberOfComponents="3"  format="ascii">0 0 0  0.2 0 0  0.4 0 0  0.6 0 0  0.8 0 0  1 0 0  1.2 0 0  1.4 0 0  1.6 0 0  1.8 0 0  2 0 0  2.2 0 0  2.4 0 0  2.6 0 0  2.8 0 0  3 0 0  3.2 0 0  3.4 0 0  3.6 0 0  3.8 0 0  4 0 0  4.2 0 0  4.4 0 0  4.6 0 0  4.8 0 0  5 0 0  5.2 0 0  5.4 0 0  5.6 0 0  5.8 0 0  6 0 0  6.2 0 0  6.4 0 0  6.6 0 0  6.8 0 0  7 0 0  7.2 0 0  7.4 0 0  7.6 0 0  7.8 0 0  8 0 0  8.199999999999999 0 0  8.4 0 0  8.6 0 0  8.800000000000001 0 0  9 0 0  9.199999999999999 0 0  9.4 0 0  9.6 0 0  9.800000000000001 0 0  10 0 0  0 0.2 0  0.2 0.2 0  0.4 0.2 0  0.6 0.2 0  0.8 0.2 0  1 0.2 0  1.2 0.2 0  1.4 0.2 0  1.6 0.2 0  1.8 0.2 0  2 0.2 0  2.2 0.2 0  2.4 0.2 0  2.6 0.2 0  2.8 0.2 0  3 0.2 0  3.2 0.2 0  3.4 0.2 0  3.6 0.2 0  3.8 0.2 0  4 0.2 0  4.2 0.2 0  4.4 0.2 0  4.6 0.2 0  4.8 0.2 0  5 0.2 0  5.2 0.2 0  5.4 0.2 0  5.6 0.2 0  5.8 0.2 0  6 0.2 0  6.2 0.2 0  6.4 0.2 0  6.6 0.2 0  6.8 0.2 0  7 0.2 0  7.2 0.2 0  7.4 0.2 0  7.6 0.2 0  7.8 0.2 0  8 0.2 0  8.199999999999999 0.2 0  8.4 0.2 0  8.6 0.2 0  8.800000000000001 0.2 0  9 0.2 0  9.199999999999999 0.2 0  9.4 0.2 0  9.6 0.2 0  9.800000000000001 0.2 0  10 0.2 0  0 0.4 0  0.2 0.4 0  0.4 0.4 0  0.6 0.4 0  0.8 0.4 0  1 0.4 0  1.2 0.4 0  1.4 0.4 0  1.6 0.4 0  1.8 0.4 0  2 0.4 0  2.2 0.4 0  2.4 0.4 0  2.6 0.4 0  2.8 0.4 0  3 0.4 0  3.2 0.4 0  3.4 0.4 0  3.6 0.4 0  3.8 0.4 0  4 0.4 0  4.2 0.4 0  4.4 0.4 0  4.6 0.4 0  4.8 0.4 0  5 0.4 0  5.2 0.4 0  5.4 0.4 0  5.6 0.4 0  5.8 0.4 0  6 0.4 0  6.2 0.4 0  6.4 0.4 0  6.6 0.4 0  6.8 0.4 0  7 0.4 0  7.2 0.4 0  7.4 0.4 0  7.6 0.4 0  7.8 0.4 0  8 0.4 0  8.199999999999999 0.4 0  8.4 0.4 0  8.6 0.4 0  8.800000000000001 0.4 0  9 0.4 0  9.199999999999999 0.4 0  9.4 0.4 0  9.6 0.4 0  9.800000000000001 0.4 0  10 0.4 0  0 0.6 0  0.2 0.6 0  0.4 0.6 0  0.6 0.6 0  0.8 0.6 0  1 0.6 0  1.2 0.6 0  1.4 0.6 0  1.6 0.6 0  1.8 0.6 0  2 0.6 0  2.2 0.6 0  2.4 0.6 0  2.6 0.6 0  2.8 0.6 0  3 0.6 0  3.2 0.6 0  3.4 0.6 0  3.6 0.6 0  3.8 0.6 0  4 0.6 0  4.2 0.6 0  4.4 0.6 0  4.6 0.6 0  4.8 0.6 0  5 0.6 0  5.2 0.6 0  5.4 0.6 0  5.6 0.6 0  5.8 0.6 0  6 0.6 0  6.2 0.6 0  6.4 0.6 0  6.6 0.6 0  6.8 0.6 0  7 0.6 0  7.2 0.6 0  7.4 0.6 0  7.6 0.6 0  7.8 0.6 0  8 0.6 0  8.199999999999999 0.6 0  8.4 0.6 0  8.6 0.6 0  8.800000000000001 0.6 0  9 0.6 0  9.199999999999999 0.6 0  9.4 0.6 0  9.6 0.6 0  9.800000000000001 0.6 0  10 0.6 0  0 0.8 0  0.2 0.8 0  0.4 0.8 0  0.6 0.8 0  0.8 0.8 0  1 0.8 0  1.2 0.8 0  1.4 0.8 0  1.6 0.8 0  1.8 0.8 0  2 0.8 0  2.2 0.8 0  2.4 0.8 0  2.6 0.8 0  2.8 0.8 0  3 0.8 0  3.2 0.8 0  3.4 0.8 0  3.6 0.8 0  3.8 0.8 0  4 0.8 0  4.2 0.8 0  4.4 0.8 0  4.6 0.8 0  4.8 0.8 0  5 0.8 0  5.2 0.8 0  5.4 0.8 0  5.6 0.8 0  5.8 0.8 0  6 0.8 0  6.2 0.8 0  6.4 0.8 0  6.6 0.8 0  6.8 0.8 0  7 0.8 0  7.2 0.8 0  7.4 0.8 0  7.6 0.8 0  7.8 0.8 0  8 0.8 0  8.199999999999999 0.8 0  8.4 0.8 0  8.6 0.8 0  8.800000000000001 0.8 0  9 0.8 0  9.199999999999999 0.8 0  9.4 0.8 0  9.6 0.8 0  9.800000000000001 0.8 0  10 0.8 0  0 1 0  0.2 1 0  0.4 1 0  0.6 1 0  0.8 1 0  1 1 0  1.2 1 0  1.4 1 0  1.6 1 0  1.8 1 0  2 1 0  2.2 1 0  2.4 1 0  2.6 1 0  2.8 1 0  3 1 0  3.2 1 0  3.4 1 0  3.6 1 0  3.8 1 0  4 1 0  4.2 1 0  4.4 1 0  4.6 1 0  4.8 1 0  5 1 0  5.2 1 0  5.4 1 0  5.6 1 0  5.8 1 0  6 1 0  6.2 1 0  6.4 1 0  6.6 1 0  6.8 1 0  7 1 0  7.2 1 0  7.4 1 0  7.6 1 0  7.8 1 0  8 1 0  8.199999999999999 1 0  8.4 1 0  8.6 1 0  8.800000000000001 1 0  9 1 0  9.199999999999999 1 0  9.4 1 0  9.6 1 0  9.800000000000001 1 0  10 1 0  0 1.2 0  0.2 1.2 0  0.4 1.2 0  0.6 1.2 0  0.8 1.2 0  1 1.2 0  1.2 1.2 0  1.4 1.2 0  1.6 1.2 0  1.8 1.2 0  2 1.2 0  2.2 1.2 0  2.4 1.2 0  2.6 1.2 0  2.8 1.2 0  3 1.2 0  3.2 1.2 0  3.4 1.2 0  3.6 1.2 0  3.8 1.2 0  4 1.2 0  4.2 1.2 0  4.4 1.2 0  4.6 1.2 0  4.8 1.2 0  5 1.2 0  5.2 1.2 0  5.4 1.2 0  5.6 1.2 0  5.8 1.2 0  6 1.2 0  6.2 1.2 0  6.4 1.2 0  6.6 1.2 0  6.8 1.2 0  7 1.2 0  7.2 1.2 0  7.4 1.2 0  7.6 1.2 0  7.8 1.2 0  8 1.2 0  8.199999999999999 1.2 0  8.4 1.2 0  8.6 1.2 0  8.800000000000001 1.2 0  9 1.2 0  9.199999999999999 1.2 0  9.4 1.2 0  9.6 1.2 0  9.800000000000001 1.2 0  10 1.2 0  0 1.4 0  0.2 1.4 0  0.4 1.4 0  0.6 1.4 0  0.8 1.4 0  1 1.4 0  1.2 1.4 0  1.4 1.4 0  1.6 1.4 0  1.8 1.4 0  2 1.4 0  2.2 1.4 0  2.4 1.4 0  2.6 1.4 0  2.8 1.4 0  3 1.4 0  3.2 1.4 0  3.4 1.4 0  3.6 1.4 0  3.8 1.4 0  4 1.4 0  4.2 1.4 0  4.4 1.4 0  4.6 1.4 0  4.8 1.4 0  5 1.4 0  5.2 1.4 0  5.4 1.4 0  5.6 1.4 0  5.8 1.4 0  6 1.4 0  6.2 1.4 0  6.4 1.4 0  6.6 1.4 0  6.8 1.4 0  7 1.4 0  7.2 1.4 0  7.4 1.4 0  7.6 1.4 0  7.8 1.4 0  8 1.4 0  8.199999999999999 1.4 0  8.4 1.4 0  8.6 1.4 0  8.800000000000001 1.4 0  9 1.4 0  9.199999999999999 1.4 0  9.4 1.4 0  9.6 1.4 0  9.800000000000001 1.4 0  10 1.4 0  0 1.6 0  0.2 1.6 0  0.4 1.6 0  0.6 1.6 0  0.8 1.6 0  1 1.6 0  1.2 1.6 0  1.4 1.6 0  1.6 1.6 0  1.8 1.6 0  2 1.6 0  2.2 1.6 0  2.4 1.6 0  2.6 1.6 0  2.8 1.6 0  3 1.6 0  3.2 1.6 0  3.4 1.6 0  3.6 1.6 0  3.8 1.6 0  4 1.6 0  4.2 1.6 0  4.4 1.6 0  4.6 1.6 0  4.8 1.6 0  5 1.6 0  5.2 1.6 0  5.4 1.6 0  5.6 1.6 0  5.8 1.6 0  6 1.6 0  6.2 1.6 0  6.4 1.6 0  6.6 1.6 0  6.8 1.6 0  7 1.6 0  7.2 1.6 0  7.4 1.6 0  7.6 1.6 0  7.8 1.6 0  8 1.6 0  8.199999999999999 1.6 0  8.4 1.6 0  8.6 1.6 0  8.800000000000001 1.6 0  9 1.6 0  9.199999999999999 1.6 0  9.4 1.6 0  9.6 1.6 0  9.800000000000001 1.6 0  10 1.6 0  0 1.8 0  0.2 1.8 0  0.4 1.8 0  0.6 1.8 0  0.8 1.8 0  1 1.8 0  1.2 1.8 0  1.4 1.8 0  1.6 1.8 0  1.8 1.8 0  2 1.8 0  2.2 1.8 0  2.4 1.8 0  2.6 1.8 0  2.8 1.8 0  3 1.8 0  3.2 1.8 0  3.4 1.8 0  3.6 1.8 0  3.8 1.8 0  4 1.8 0  4.2 1.8 0  4.4 1.8 0  4.6 1.8 0  4.8 1.8 0  5 1.8 0  5.2 1.8 0  5.4 1.8 0  5.6 1.8 0  5.8 1.8 0  6 1.8 0  6.2 1.8 0  6.4 1.8 0  6.6 1.8 0  6.8 1.8 0  7 1.8 0  7.2 1.8 0  7.4 1.8 0  7.6 1.8 0  7.8 1.8 0  8 1.8 0  8.199999999999999 1.8 0  8.4 1.8 0  8.6 1.8 0  8.800000000000001 1.8 0  9 1.8 0  9.199999999999999 1.8 0  9.4 1.8 0  9.6 1.8 0  9.800000000000001 1.8 0  10 1.8 0  0 2 0  0.2 2 0  0.4 2 0  0.6 2 0  0.8 2 0  1 2 0  1.2 2 0  1.4 2 0  1.6 2 0  1.8 2 0  2 2 0  2.2 2 0  2.4 2 0  2.6 2 0  2.8 2 0  3 2 0  3.2 2 0  3.4 2 0  3.6 2 0  3.8 2 0  4 2 0  4.2 2 0  4.4 2 0  4.6 2 0  4.8 2 0  5 2 0  5.2 2 0  5.4 2 0  5.6 2 0  5.8 2 0  6 2 0  6.2 2 0  6.4 2 0  6.6 2 0  6.8 2 0  7 2 0  7.2 2 0  7.4 2 0  7.6 2 0  7.8 2 0  8 2 0  8.199999999999999 2 0  8.4 2 0  8.6 2 0  8.800000000000001 2 0  9 2 0  9.199999999999999 2 0  9.4 2 0  9.6 2 0  9.800000000000001 2 0  10 2 0  0 2.2 0  0.2 2.2 0  0.4 2.2 0  0.6 2.2 0  0.8 2.2 0  1 2.2 0  1.2 2.2 0  1.4 2.2 0  1.6 2.2 0  1.8 2.2 0  2 2.2 0  2.2 2.2 0  2.4 2.2 0  2.6 2.2 0  2.8 2.2 0  3 2.2 0  3.2 2.2 0  3.4 2.2 0  3.6 2.2 0  3.8 2.2 0  4 2.2 0  4.2 2.2 0  4.4 2.2 0  4.6 2.2 0  4.8 2.2 0  5 2.2 0  5.2 2.2 0  5.4 2.2 0  5.6 2.2 0  5.8 2.2 0  6 2.2 0  6.2 2.2 0  6.4 2.2 0  6.6 2.2 0  6.8 2.2 0  7 2.2 0  7.2 2.2 0  7.4 2.2 0  7.6 2.2 0  7.8 2.2 0  8 2.2 0  8.199999999999999 2.2 0  8.4 2.2 0  8.6 2.2 0  8.800000000000001 2.2 0  9 2.2 0  9.199999999999999 2.2 0  9.4 2.2 0  9.6 2.2 0  9.800000000000001 2.2 0  10 2.2 0  0 2.4 0  0.2 2.4 0  0.4 2.4 0  0.6 2.4 0  0.8 2.4 0  1 2.4 0  1.2 2.4 0  1.4 2.4 0  1.6 2.4 0  1.8 2.4 0  2 2.4 0  2.2 2.4 0  2.4 2.4 0  2.6 2.4 0  2.8 2.4 0  3 2.4 0  3.2 2.4 0  3.4 2.4 0  3.6 2.4 0  3.8 2.4 0  4 2.4 0  4.2 2.4 0  4.4 2.4 0  4.6 2.4 0  4.8 2.4 0  5 2.4 0  5.2 2.4 0  5.4 2.4 0  5.6 2.4 0  5.8 2.4 0  6 2.4 0  6.2 2.4 0  6.4 2.4 0  6.6 2.4 0  6.8 2.4 0  7 2.4 0  7.2 2.4 0  7.4 2.4 0  7.6 2.4 0  7.8 2.4 0  8 2.4 0  8.199999999999999 2.4 0  8.4 2.4 0  8.6 2.4 0  8.800000000000001 2.4 0  9 2.4 0  9.199999999999999 2.4 0  9.4 2.4 0  9.6 2.4 0  9.800000000000001 2.4 0  10 2.4 0  0 2.6 0  0.2 2.6 0  0.4 2.6 0  0.6 2.6 0  0.8 2.6 0  1 2.6 0  1.2 2.6 0  1.4 2.6 0  1.6 2.6 0  1.8 2.6 0  2 2.6 0  2.2 2.6 0  2.4 2.6 0  2.6 2.6 0  2.8 2.6 0  3 2.6 0  3.2 2.6 0  3.4 2.6 0  3.6 2.6 0  3.8 2.6 0  4 2.6 0  4.2 2.6 0  4.4 2.6 0  4.6 2.6 0  4.8 2.6 0  5 2.6 0  5.2 2.6 0  5.4 2.6 0  5.6 2.6 0  5.8 2.6 0  6 2.6 0  6.2 2.6 0  6.4 2.6 0  6.6 2.6 0  6.8 2.6 0  7 2.6 0  7.2 2.6 0  7.4 2.6 0  7.6 2.6 0  7.8 2.6 0  8 2.6 0  8.199999999999999 2.6 0  8.4 2.6 0  8.6 2.6 0  8.800000000000001 2.6 0  9 2.6 0  9.199999999999999 2.6 0  9.4 2.6 0  9.6 2.6 0  9.800000000000001 2.6 0  10 2.6 0  0 2.8 0  0.2 2.8 0  0.4 2.8 0  0.6 2.8 0  0.8 2.8 0  1 2.8 0  1.2 2.8 0  1.4 2.8 0  1.6 2.8 0  1.8 2.8 0  2 2.8 0  2.2 2.8 0  2.4 2.8 0  2.6 2.8 0  2.8 2.8 0  3 2.8 0  3.2 2.8 0  3.4 2.8 0  3.6 2.8 0  3.8 2.8 0  4 2.8 0  4.2 2.8 0  4.4 2.8 0  4.6 2.8 0  4.8 2.8 0  5 2.8 0  5.2 2.8 0  5.4 2.8 0  5.6 2.8 0  5.8 2.8 0  6 2.8 0  6.2 2.8 0  6.4 2.8 0  6.6 2.8 0  6.8 2.8 0  7 2.8 0  7.2 2.8 0  7.4 2.8 0  7.6 2.8 0  7.8 2.8 0  8 2.8 0  8.199999999999999 2.8 0  8.4 2.8 0  8.6 2.8 0  8.800000000000001 2.8 0  9 2.8 0  9.199999999999999 2.8 0  9.4 2.8 0  9.6 2.8 0  9.800000000000001 2.8 0  10 2.8 0  0 3 0  0.2 3 0  0.4 3 0  0.6 3 0  0.8 3 0  1 3 0  1.2 3 0  1.4 3 0  1.6 3 0  1.8 3 0  2 3 0  2.2 3 0  2.4 3 0  2.6 3 0  2.8 3 0  3 3 0  3.2 3 0  3.4 3 0  3.6 3 0  3.8 3 0  4 3 0  4.2 3 0  4.4 3 0  4.6 3 0  4.8 3 0  5 3 0  5.2 3 0  5.4 3 0  5.6 3 0  5.8 3 0  6 3 0  6.2 3 0  6.4 3 0  6.6 3 0  6.8 3 0  7 3 0  7.2 3 0  7.4 3 0  7.6 3 0  7.8 3 0  8 3 0  8.199999999999999 3 0  8.4 3 0  8.6 3 0  8.800000000000001 3 0  9 3 0  9.199999999999999 3 0  9.4 3 0  9.6 3 0  9.800000000000001 3 0  10 3 0  0 3.2 0  0.2 3.2 0  0.4 3.2 0  0.6 3.2 0  0.8 3.2 0  1 3.2 0  1.2 3.2 0  1.4 3.2 0  1.6 3.2 0  1.8 3.2 0  2 3.2 0  2.2 3.2 0  2.4 3.2 0  2.6 3.2 0  2.8 3.2 0  3 3.2 0  3.2 3.2 0  3.4 3.2 0  3.6 3.2 0  3.8 3.2 0  4 3.2 0  4.2 3.2 0  4.4 3.2 0  4.6 3.2 0  4.8 3.2 0  5 3.2 0  5.2 3.2 0  5.4 3.2 0  5.6 3.2 0  5.8 3.2 0  6 3.2 0  6.2 3.2 0  6.4 3.2 0  6.6 3.2 0  6.8 3.2 0  7 3.2 0  7.2 3.2 0  7.4 3.2 0  7.6 3.2 0  7.8 3.2 0  8 3.2 0  8.199999999999999 3.2 0  8.4 3.2 0  8.6 3.2 0  8.800000000000001 3.2 0  9 3.2 0  9.199999999999999 3.2 0  9.4 3.2 0  9.6 3.2 0  9.800000000000001 3.2 0  10 3.2 0  0 3.4 0  0.2 3.4 0  0.4 3.4 0  0.6 3.4 0  0.8 3.4 0  1 
[...]
<PointData  Scalars="f_16"> 
<DataArray  type="Float64"  Name="f_16"  format="ascii">2.0444259053509158e-229  2.4479597255017790e-228  6.4622162380242887e-227  1.5814571747034017e-225  1.0927656556245545e-223  3.2391473944733436e-223  1.1871356331111301e-219  6.3497887220984420e-222  6.0677103711571774e-223  2.1877445959240265e-224  1.5550192047008682e-225  9.3647141449205180e-227  6.1995050041949635e-228  5.3654785594908793e-229  3.9324956169608897e-230  3.3699020817931566e-231  3.0843027206006122e-232  1.7794754623374170e-233  1.5112056165403710e-234  1.0023880468107699e-235  7.0284997750999304e-237  5.2942921494597808e-238  3.2700150120959290e-239  3.2031015757266354e-240  2.8265196154393417e-241  2.1476334220250709e-242  2.3112819950489106e-243  1.1472583892208545e-244  1.0724669077390439e-245  8.7124591101365109e-247  1.0084362981914002e-247  6.5924569066764853e-249  4.9568464456438408e-250  4.4611977010922321e-251  4.9399250171221901e-252  3.7687272433475578e-253  2.2819979441997373e-254  1.9454974265761278e-255  1.2396300641310851e-256  1.2100606267411991e-257  6.3368809416521272e-259  7.3493912747261792e-260  4.0232173714996171e-261  3.0116407785552640e-262  3.2785175244009855e-263  1.9346913198589156e-264  1.9690069175483548e-265  1.0477114770057352e-266  7.8087056309671421e-268  7.0501394291931271e-269  1.1969798975730241e-269  2.9820313807079101e-229  4.2223905867534269e-228  1.0614401024073818e-226  2.8554839640051484e-225  6.9657247186151419e-224  2.3093353576605842e-222  9.2012876972324043e-223  6.1997514571288889e-223  6.5627257227030296e-224  7.4784909149067075e-225  9.0928198876284591e-226  8.8677315790200776e-227  4.0849104495353204e-228  3.4888767789650111e-229  1.9401199714134245e-230  1.9917757210701792e-231  2.0944598921845200e-232  1.1998319809555746e-233  1.4845608278455647e-234  6.5474374129477123e-236  7.0182092116144931e-237  3.2208123566077188e-238  2.6547215283156414e-239  2.4357403893222782e-240  2.7067807656429942e-241  1.5695128878262201e-242  1.6239300011908801e-243  1.0104465621320797e-244  1.1001232658579128e-245  7.4539425303828084e-247  8.9244320822970718e-248  5.5403874621322985e-249  5.2814577228838119e-250  4.9652154049783740e-251  4.3391006756956629e-252  3.6677894654650364e-253  1.6441895338995579e-254  2.0339591116394134e-255  8.8075740385121361e-257  9.1301034697187357e-258  7.6607325715602051e-259  1.1433281780702599e-259  2.6929692150609026e-261  3.4682033378980625e-262  5.6290070317249612e-263  1.8197964144296351e-264  2.6913748677108527e-265  6.5371210064884713e-267  7.4866867134758959e-268  6.7186043643328329e-269  8.2888515774367322e-270  4.7896703201958341e-229  3.5755127398838325e-228  9.8259565434966844e-227  1.5263089758560559e-225  2.1651685442763410e-224  8.7602633105778677e-224  9.5045946153499691e-224  8.9522343236152992e-224  1.7617330541062602e-224  1.7808368919681491e-225  1.8467137588650065e-226  2.8472575848927847e-227  2.5694535166381411e-228  1.9083497168835854e-229  1.4598595807225455e-230  1.3102525892053403e-231  1.4061057733374522e-232  1.0990062803472707e-233  1.1536352885367621e-234  4.5258352266126234e-236  5.8414039841848041e-237  2.7825222756482439e-238  2.1090155754826131e-239  1.7144735698032450e-240  1.0966470742476070e-241  8.6169352807305069e-243  1.1936030542660758e-243  7.4901967966923750e-245  6.3801161754424905e-246  8.1441140932172542e-247  5.0379200205745775e-248  4.1186562227535515e-249  3.8613663004298426e-250  2.4159169645692049e-251  2.7511083175094971e-252  2.6958727752753488e-253  1.1666948588762412e-254  1.6061523474773491e-255  6.2131166644619267e-257  6.8106234551972694e-258  3.2315625350116125e-259  3.0075468194037912e-260  3.2119444453407672e-261  6.0749338778041104e-262  1.6828112699092074e-263  2.3706103153606531e-264  6.4475884240766493e-266  7.8730802210014986e-267  9.8209755893286896e-268  6.1298696524016081e-269  9.4083069847182903e-270  5.4050941021187023e-229  3.4379347394667039e-228  4.4407789507682711e-227  3.3609867675788350e-226  2.2024134778997888e-225  1.1617413001117778e-224  6.7958251146991723e-225  1.1909809446213940e-224  1.2772537351938177e-225  4.9480933278904418e-226  7.6082839150997516e-227  7.9714440681803306e-228  9.4054897301916241e-229  6.7207833500163116e-230  6.4596316938203576e-231  5.1871370994134247e-232  4.3617114826157050e-233  4.6804446729360283e-234  3.3709244051662278e-235  2.1122930930239073e-236  1.9282363746708634e-237  2.2027939396440303e-238  3.8781144886882350e-239  7.9535218223412311e-241  6.7300017339480486e-242  6.5022508931811622e-243  5.3893883756461841e-244  4.5737863480352824e-245  4.7676976210606516e-246  2.9625093980601948e-247  3.5740610585886786e-248  2.0046762422521910e-249  2.4874071295844421e-250  1.3198066913567916e-251  1.5129036092009195e-252  1.4247590918068850e-253  6.8621499617140050e-255  7.1290198242180242e-256  4.4550552514505204e-257  4.2417913074157543e-258  3.9568863751077201e-259  2.5470689056226327e-260  1.9499461825926860e-261  1.5434550739064629e-262  1.1286878839175280e-263  8.9344816443193402e-265  7.8509125290838959e-266  6.8951498770462902e-267  8.1888448508750647e-268  6.4580631520024847e-269  5.8743776016019580e-270  1.9556719516468099e-229  9.7065280649292514e-229  7.8317467098112921e-228  3.3232059754388817e-227  1.4157703628045223e-226  3.5537237421233615e-226  5.0651834388379398e-226  4.2545712227894744e-226  1.9858558352707812e-226  1.1312002221930445e-226  1.2168471443392944e-227  3.5205594810143699e-228  1.7398445788033020e-229  1.8178407024416914e-230  2.1041972728216673e-231  1.6909033516796329e-232  2.9973546215001373e-233  1.6031706082332822e-234  1.5504166770309868e-235  1.4550609880102700e-236  1.1780822471495287e-237  1.1207919877059738e-238  7.9237012461895098e-240  6.0877597767192122e-241  5.0376552865011579e-242  6.1580165145250502e-243  3.7232552122208259e-244  4.2379874209060487e-245  4.4273818086287256e-246  5.5372746655782441e-247  2.1235973911300714e-248  1.4639564265762363e-249  1.7654246830283339e-250  6.7348747461991404e-252  6.1881191843188184e-253  6.9954605651790734e-254  5.8806972365818155e-255  5.4403228239863497e-256  7.5277754433337694e-257  3.4130448468593692e-258  3.4006484649711310e-259  1.6547447150336621e-260  1.7328389394237206e-261  1.1767029595358552e-262  1.5883802504090763e-263  7.2359948389963301e-265  4.6304156129364220e-266  3.6313396878518422e-267  3.4224613714168024e-268  2.3891480269604208e-269  4.3689834762020549e-270  3.7116203417454856e-230  1.5686870942718746e-229  1.2895637390147003e-228  6.9759109606849733e-228  1.2988752711304543e-227  4.0323707802122073e-227  3.4282330151719657e-227  1.9236936551030082e-227  1.4845655440817221e-227  6.5951476477354160e-228  2.1918099817473719e-228  1.7680037365667316e-229  2.9020388777195972e-230  3.9147508379327575e-231  7.6492816291369580e-232  7.6168406492870702e-233  5.6045724667587412e-234  5.9475856036997780e-235  5.4930240799644856e-236  4.8059931248418212e-237  5.5393514975506610e-238  3.9363010953142414e-239  3.6196067764345329e-240  8.4126955891187170e-241  2.9824788632594314e-242  3.5409933881539093e-243  1.8118955409326355e-244  2.2381933032288565e-245  1.3811047565885151e-246  1.7301549989186587e-247  2.2348392341393422e-248  1.0021246903146077e-249  8.9277363741916265e-251  8.1927329729449779e-252  1.0144835325205159e-252  4.9943711281201172e-254  1.8028073565332315e-255  1.7404259479337835e-256  1.9230073005168503e-257  1.7560807530606367e-258  1.3160838638229600e-259  1.3330927536824518e-260  7.5707514623369508e-262  6.6732599936518237e-263  5.7857017673985087e-264  7.6884608199260392e-265  2.0062983470767094e-266  1.7819722579078860e-267  2.3219608069911593e-268  1.2466514861163958e-269  2.1873157410995025e-270  9.1786285373414928e-231  2.9386481294852743e-230  1.5528334457915815e-229  3.1936892653554448e-229  9.9304009713710783e-229  1.7280067908586126e-228  3.0270769610613010e-228  1.8823194430172853e-228  1.4141496893378807e-228  1.1751749811219816e-228  9.0585083489601633e-230  2.4299564008972101e-230  6.2534506756711192e-231  8.4461849339440989e-232  1.0719162004127699e-232  2.4208116162134137e-233  2.2065041462914271e-234  1.6322519720325354e-235  1.5840936989716176e-236  2.7705203582190096e-237  1.8517921959081675e-238  1.8448061347481803e-239  1.3119560472737413e-240  1.5757956122365234e-241  2.8410463532940099e-242  1.0644670294858134e-243  9.2093714307856921e-245  1.0755564721673771e-245  1.1498680943584351e-246  1.7099249529989017e-247  7.2708540889251220e-249  7.4752507284242598e-250  5.9435970789239371e-251  8.5684678161536819e-252  2.8580607572362298e-253  2.8653612679162489e-254  3.0707436876356814e-255  1.9609801888305161e-256  2.0603641669213672e-257  9.4549608488685788e-259  1.0736901162221898e-259  7.7446173340689230e-261  5.5376968942087884e-262  7.0673805450635215e-263  4.9329345960573998e-264  5.8518887617303875e-265  3.1776426388002058e-266  2.5227634881967207e-267  1.6042942827549677e-268  2.8084846311205337e-269  1.9906275637188997e-270  1.6526351855238007e-231  9.2995183122896404e-231  1.8016615123263987e-230  4.5406257219715061e-230  1.0098167565715855e-229  1.4036273131850647e-229  1.3316712287470110e-229  1.3329109162166139e-229  7.6529833804738298e-230  3.7298766493405841e-230  1.1901086294450557e-230  6.4054497966410675e-231  7.1594983922460851e-232  1.8544774147223876e-232  2.2491338560756443e-233  3.2201620163825826e-234  5.1772915032206914e-235  7.5748399365736585e-236  7.1481327132309815e-237  4.7736953063353590e-238  4.6557896918489298e-239  6.5358050964521368e-240  4.4929885560016358e-241  4.4212274635102231e-242  6.4545955642466828e-243  5.1775894733318792e-244  6.3076131782679836e-245  1.5888498635313913e-246  3.5376615643548521e-247  4.1642137891681596e-248  3.1479787793604547e-249  3.1153404675803148e-250  5.7229863454995768e-251  1.5669609158019841e-252  1.5121560863256183e-253  1.7615796297039548e-254  7.8841663998864113e-256  8.1269943366691732e-257  7.2123235760384187e-258  5.1356288816459772e-259  4.3669753951132326e-260  4.3830767764929507e-261  4.1287362922805781e-262  2.1978633525298810e-263  3.1106708225808715e-264  3.2067524281593194e-265  1.6140482228878833e-266  1.5532859291687447e-267  1.0902686991623431e-268  8.5656385179327046e-270  1.2814620421622091e-270  1.4744611958067601e-232  3.0496054254474659e-232  3.2130003743930801e-231  2.5519382253378041e-231  1.0135946725677539e-230  1.4252205001173067e-230  1.3245432318445530e-230  1.4243015714336289e-230  8.9005184372266195e-231  5.3685869252213287e-231  1.6160867944868591e-231  2.1498704542236417e-232  5.1747785876211501e-233  1.4631311982502091e-233  3.0238289641101997e-234  7.2269472486137457e-235  1.0695427319023933e-235  9.4755560355162731e-237  2.2485629680391104e-237  1.6765456584219139e-238  1.3106986372581443e-239  2.0014643432595294e-240  2.2896606962834179e-241  2.0294390479925671e-242  1.5447509630023959e-243  2.0903893668257924e-244  1.5063560086165953e-245  1.4955841444963379e-246  1.1459092546755580e-247  2.5376160504022551e-248  1.4285833439069026e-249  1.5783149403952725e-250  1.6050669753047445e-251  2.5458990172115773e-252  8.2180549852195406e-254  7.8167268337861732e-255  6.9619745211382548e-256  1.9646308241691095e-257  3.9895834099200203e-258  2.6810490664849326e-259  3.0670739884175715e-260  1.6858866973170341e-261  2.3123179121761472e-262  1.0574997243801253e-263  9.5173658000264618e-265  1.2430129388177148e-265  2.2670719468111771e-266  7.6757783073960194e-268  6.3976783170309706e-269  4.2920438095028736e-270  7.5283889717255703e-271  1.9666269663694516e-233  4.2850142599278426e-233  1.5925800457509839e-232  3.4527961467650541e-232  3.7705992528594868e-232  1.0011402996450350e-231  7.4560367886583633e-232  7.6611060595328982e-232  7.5341320808730683e-232  3.7776568292807314e-232  1.4976332087259961e-232  6.3936251305706378e-233  2.0777598639127605e-233  1.9338044523986338e-234  4.9870537358738417e-235  8.8412397226676678e-236  1.6695003454889335e-236  3.6736851417077943e-237  6.2556786390342579e-238  2.9770371545386886e-239  6.3083539293688145e-240  1.3111141864691447e-240  6.5532099126293667e-242  9.1691236215854691e-243  5.1408483065041950e-244  7.8736875908866533e-245  6.8367367676323849e-246  6.7994268642240565e-247  7.4685541617050765e-248  7.5072484879860323e-249  6.3475204617374748e-250  5.1320859256462618e-251  5.8131280574818627e-252  6.5691139507939240e-253  1.0181047009918853e-253  2.6131720236458536e-255  2.8967780417060344e-256  3.8456187698158468e-257  2.1122379829974638e-258  1.6979099429821105e-259  1.4063044008412419e-260  1.7111266689077727e-261  9.7729252072644121e-263  9.2058400491548516e-264  1.3720501810320795e-264  5.1670275176394366e-266  5.9023012939450740e-267  9.3291419258070970e-268  2.5952722788744493e-269  2.2916918076231365e-270  4.0265581098225328e-271  2.7768436500163598e-234  5.9414444751862955e-234  1.0958594884850771e-233  2.6233719751501400e-233  2.9890370623899167e-233  5.6759370723043677e-233  5.8971702260163857e-233  6.9298249806575104e-233  5.7426899605915481e-233  4.6479878849924894e-233  1.3748470910519238e-233  3.2055952601997604e-234  7.6666308920700157e-235  4.0718887570597146e-235  6.6229212860873836e-236  1.3297151949591276e-236  2.9691388262542755e-237  8.4017175942222657e-238  5.7702278172593186e-239  7.7178643990495613e-240  2.9199822368593007e-240  1.5740495784807037e-241  2.5664975821815906e-242  1.6312993931607795e-243  2.6087856757554450e-244  2.2684361153637800e-245  2.4457454402581638e-246  2.9256616553029829e-247  2.8480107610520024e-248  3.2773370874047443e-249  3.2682896997243339e-250  2.7919259138565206e-251  2.8918055411992639e-252  4.3608948237267719e-253  1.7568360775005608e-254  1.3605202677559884e-255  1.4569201524768535e-256  1.0735054321305705e-257  8.2533421015003540e-259  8.1872420115336382e-260  8.3111179647165169e-261  8.5670944426216379e-262  1.5526215783963730e-262  3.7692132950010807e-264  4.3792833995722620e-265  6.9227989700882647e-266  1.7889143719940428e-267  2.3980406894772712e-268  1.7114052039535640e-269  1.3823722796903423e-270  2.2572985086946308e-271  2.3806761056255401e-235  4.1052484806695089e-235  1.1364840648623746e-234  1.4782456584005263e-234  3.2710476569755317e-234  5.9696212131136996e-234  5.1992889653936693e-234  7.0280874573432061e-234  6.0155904230660568e-234  5.0326145284652759e-234  1.3850493269753706e-234  3.1530422164733409e-235  9.0938300692409772e-236  2.1748006512611554e-236  1.1777182315128758e-236  1.9030688750201482e-237  3.8704059449392350e-238  6.2789895903268622e-239  9.1583306358244590e-240  1.6106759730402198e-240  1.9898610288850815e-241  6.0041352844439192e-242  2.6797902781839444e-243  3.8736158880010186e-244  6.6837934615974097e-245  3.8537401290863711e-246  6.4693177060287417e-247  7.0247875870051239e-248  1.3275389655715436e-248  2.1823768736799540e-249  1.4150485515032936e-250  2.6717803556523380e-251  9.2683120781330034e-253  1.1453611964196332e-253  1.7077885480904705e-254  5.5957256217988551e-256  6.3820967690006251e-257  7.6426618423477349e-258  1.2555691437983284e-258  4.3491790676971094e-260  8.5352746456362207e-261  2.8768506523681260e-262  3.5098765996173647e-263  5.4450697420243054e-264  1.5014078680534018e-265  1.7787195357572287e-266  1.2334081544660717e-267  1.3550107351780199e-268  1.2937184374232818e-269  1.5747401581924329e-270  1.3893956765129891e-271  3.0048359389690193e-236  7.5178237936341245e-236  5.9760455828763244e-236  1.6495986798393279e-235  3.0318314455634715e-235  4.0719988127592474e-235  5.7538374226033957e-235  6.0476779778949111e-235  4.4360952409634383e-235  2.3211663530680709e-235  1.4499568429984130e-235  4.0685858549728743e-236  2.2187528152035177e-236  3.0398718882578044e-237  6.0575850945998537e-238  1.4678131400038238e-238  1.1461583064624888e-238  1.2429857278674669e-239  3.2214846288210825e-240  3.8753282773878156e-241  4.1372895042437056e-242  6.2177694748300118e-243  1.3686597818711072e-243  9.0145448781430590e-245  1.4109816348006434e-245  1.7352600496070452e-246  1.8070674612504304e-247  3.4456469553444183e-248  5.1713956227527264e-249  3.6155085539759391e-250  5.8328493035012063e-251  3.9077650980652206e-252  7.0808520935588807e-253  2.9750703911492072e-254  3.2066219488198201e-255  3.2939001720515404e-256  3.0377354046893512e-257  3.4596264384198838e-258  2.8807372516766630e-259  5.0381583307515104e-260  1.9914757656261898e-261  2.5008002052134202e-262  1.1601408507318748e-263  1.3457696803389135e-264  8.3168358634555895e-266  8.8369917317291826e-267  4.7706632059136088e-268  6.1301322899093684e-269  5.7467562556145821e-270  9.3858761559990382e-271  7.7867254051446323e-272  1.8045538720798713e-237  2.0381117884273907e-237  7.0595247010577725e-237  3.2657844632981741e-236  2.6572641837228365e-236  3.2898097772432818e-236  4.2684459615562767e-236  3.4755128903633689e-236  2.1202845121596200e-236  2.5496629836912631e-236  9.1113379935527177e-237  4.2172408420088306e-237  1.1610383576374390e-237  5.9319469420020504e-238  8.3655901621225468e-239  3.9968327499790318e-239  5.2779827400866706e-240  1.1722008879609588e-240  2.6606579979302919e-241  4.2798908687567674e-242  8.2262341381082425e-243  1.3802597524909250e-243  1.9525719875550806e-244  3.7059564482587386e-245  3.3682361506810195e-246  7.0279583195670123e-247  3.9021254654029643e-248  6.6637274990832211e-249  6.5102512855112168e-250  1.6524838123939463e-250  8.6833489534738939e-252  1.1112425012051028e-252  1.3350401739842429e-253  2.0293430545218131e-254  1.2825964773923748e-255  2.8037200108709402e-256  9.1280114017253476e-258  1.1082556497991080e-258  1.6660473665715892e-259  1.1402923470565721e-260  2.0468242536274742e-261  8.3270675529116604e-263  1.0744638951929619e-263  4.5755976524558577e-265  4.8592768243189048e-266  3.5015897018898052e-267  3.2395659913660090e-268  2.5434941244387929e-269  3.2776350162427787e-270  1.7853694604063299e-271  3.4044192475017202e-272  1.7272277633014121e-238  2.9697575999946104e-238  1.1452458669965377e-237  1.1223404353896979e-237  4.2138107887464104e-237  3.4625209293828809e-237  3.7519538550681813e-237  3.7825675750914080e-237  2.0952018592923351e-237  2.0788257956471208e-237  6.0313165083732987e-238  3.3474140290003476e-238  1.4653559242959281e-238  2.9312286265549625e-239  7.8175698446876789e-240  2.4783683312244149e-240  5.8379188961590244e-241  1.7031633518356253e-241  3.3673193024297776e-242  1.5038255992235454e-242  1.3331859395462013e-243  2.6299073749173714e-244  6.8315037958784768e-245  4.9369119727844029e-246  7.6450018832273091e-247  6.6384333907895385e-248  7.7940969086658124e-249  1.2729891037667165e-249  3.4876205959966179e-250  1.6735309220797028e-251  3.3194474015101743e-252  2.3686497156806586e-253  3.7240509862294541e-254  4.4226506613000893e-255  6.9152876612627903e-256  4.3769950133789665e-257  6.2940733799698719e-258  3.1757576108031186e-259  4.0796098395243509e-260  6.0927128479625774e-261  4.3105314948872814e-262  7.6588461874452607e-263  3.3072821165459799e-264  4.3415497655985673e-265  1.7772615162374185e-266  2.0670875750259798e-267  2.6559125893168222e-268  1.4239715209057337e-269  1.5003263179146351e-270  1.3983118543116393e-271  1.6496352429732992e-272  2.1827284179023162e-239  5.1466222884805577e-239  5.0506785420237102e-239  1.3754189414633233e-238  1.1564812997962454e-238  2.0630061787903589e-238  1.5806805712188542e-238  3.1416972606653116e-238  2.3889841262826192e-238  1.5528058634841916e-238  6.3907413567236740e-239  3.4123166521752335e-239  1.2648010434696216e-239  5.4820386723834511e-240  1.1946077601408914e-240  3.0029211990937536e-241  7.1339222781714148e-242  1.1558640737572547e-242  4.2981077118896559e-243  8.7698747186200481e-244  3.0711251725164814e-244  1.8900615007252187e-245  6.9923669270349512e-246  9.6047664354460435e-247  1.2920437730491188e-247  2.6581079816689922e-248  2.1152251631788398e-249  2.7536382654439735e-250  4.0235403433210479e-251  8.5377392001522763e-252  3.5343954874003577e-253  4.7681296183423