<?xml version="1.0"?>
<VTKFile type="UnstructuredGrid"  version="0.1"  >
<UnstructuredGrid>
<Piece  NumberOfPoints="64" NumberOfCells="98">
<Points>
<DataArray  type="Float64"  NumberOfComponents="3"  format="ascii">0 0 0  0.1428571428571428 0 0  0.2857142857142857 0 0  0.4285714285714285 0 0  0.5714285714285714 0 0  0.7142857142857143 0 0  0.8571428571428571 0 0  1 0 0  0 0.1428571428571428 0  0.1428571428571428 0.1428571428571428 0  0.2857142857142857 0.1428571428571428 0  0.4285714285714285 0.1428571428571428 0  0.5714285714285714 0.1428571428571428 0  0.7142857142857143 0.1428571428571428 0  0.8571428571428571 0.1428571428571428 0  1 0.1428571428571428 0  0 0.2857142857142857 0  0.1428571428571428 0.2857142857142857 0  0.2857142857142857 0.2857142857142857 0  0.4285714285714285 0.2857142857142857 0  0.5714285714285714 0.2857142857142857 0  0.7142857142857143 0.2857142857142857 0  0.8571428571428571 0.2857142857142857 0  1 0.2857142857142857 0  0 0.4285714285714285 0  0.1428571428571428 0.4285714285714285 0  0.2857142857142857 0.4285714285714285 0  0.4285714285714285 0.4285714285714285 0  0.5714285714285714 0.4285714285714285 0  0.7142857142857143 0.4285714285714285 0  0.8571428571428571 0.4285714285714285 0  1 0.4285714285714285 0  0 0.5714285714285714 0  0.1428571428571428 0.5714285714285714 0  0.2857142857142857 0.5714285714285714 0  0.4285714285714285 0.5714285714285714 0  0.5714285714285714 0.5714285714285714 0  0.7142857142857143 0.5714285714285714 0  0.8571428571428571 0.5714285714285714 0  1 0.5714285714285714 0  0 0.7142857142857143 0  0.1428571428571428 0.7142857142857143 0  0.2857142857142857 0.7142857142857143 0  0.4285714285714285 0.7142857142857143 0  0.5714285714285714 0.7142857142857143 0  0.7142857142857143 0.7142857142857143 0  0.8571428571428571 0.7142857142857143 0  1 0.7142857142857143 0  0 0.8571428571428571 0  0.1428571428571428 0.8571428571428571 0  0.2857142857142857 0.8571428571428571 0  0.4285714285714285 0.8571428571428571 0  0.5714285714285714 0.8571428571428571 0  0.7142857142857143 0.8571428571428571 0  0.8571428571428571 0.8571428571428571 0  1 0.8571428571428571 0  0 1 0  0.1428571428571428 1 0  0.2857142857142857 1 0  0.4285714285714285 1 0  0.5714285714285714 1 0  0.7142857142857143 1 0  0.8571428571428571 1 0  1 1 0  </DataArray>
</Points>
<Cells>
<DataArray  type="UInt32"  Name="connectivity"  format="ascii">0 1 9  0 8 9  1 2 10  1 9 10  2 3 11  2 10 11  3 4 12  3 11 12  4 5 13  4 12 13  5 6 14  5 13 14  6 7 15  6 14 15  8 9 17  8 16 17  9 10 18  9 17 18  10 11 19  10 18 19  11 12 20  11 19 20  12 13 21  12 20 21  13 14 22  13 21 22  14 15 23  14 22 23  16 17 25  16 24 25  17 18 26  17 25 26  18 19 27  18 26 27  19 20 28  19 27 28  20 21 29  20 28 29  21 22 30  21 29 30  22 23 31  22 30 31  24 25 33  24 32 33  25 26 34  25 33 34  26 27 35  26 34 35  27 28 36  27 35 36  28 29 37  28 36 37  29 30 38  29 37 38  30 31 39  30 38 39  32 33 41  32 40 41  33 34 42  33 41 42  34 35 43  34 42 43  35 36 44  35 43 44  36 37 45  36 44 45  37 38 46  37 45 46  38 39 47  38 46 47  40 41 49  40 48 49  41 42 50  41 49 50  42 43 51  42 50 51  43 44 52  43 51 52  44 45 53  44 52 53  45 46 54  45 53 54  46 47 55  46 54 55  48 49 57  48 56 57  49 50 58  49 57 58  50 51 59  50 58 59  51 52 60  51 59 60  52 53 61  52 60 61  53 54 62  53 61 62  54 55 63  54 62 63  </DataArray>
<DataArray  type="UInt32"  Name="offsets"  format="ascii">3 6 9 12 15 18 21 24 27 30 33 36 39 42 45 48 51 54 57 60 63 66 69 72 75 78 81 84 87 90 93 96 99 102 105 108 111 114 117 120 123 126 129 132 135 138 141 144 147 150 153 156 159 162 165 168 171 174 177 180 183 186 189 192 195 198 201 204 207 210 213 216 219 222 225 228 231 234 237 240 243 246 249 252 255 258 261 264 267 270 273 276 279 282 285 288 291 294 </DataArray>
<DataArray  type="UInt8"  Name="types"  format="ascii">5 5 5 5 5 5 5 5 5 5 5 5 5 5 5 5 5 5 5 5 5 5 5 5 5 5 5 5 5 5 5 5 5 5 5 5 5 5 5 5 5 5 5 5 5 5 5 5 5 5 5 5 5 5 5 5 5 5 5 5 5 5 5 5 5 5 5 5 5 5 5 5 5 5 5 5 5 5 5 5 5 5 5 5 5 5 5 5 5 5 5 5 5 5 5 5 5 5 </DataArray>
</Cells>
<PointData  Scalars="f_15"> 
<DataArray  type="Float64"  Name="f_15"  format="ascii">-2.3554928597911595e+00  -2.5208439903302522e+00  -2.7364361169319751e+00  -2.9996621793355849e+00  2.9994518499716900e+00  2.7361734012689118e+00  2.5205855626078288e+00  2.3559437144551123e+00  -2.1902824725488532e+00  -2.3556390264714957e+00  -2.6008669611056079e+00  -2.9441860831068327e+00  2.9439313189975622e+00  2.6006472582465103e+00  2.3554169119202504e+00  2.1905254262458369e+00  -1.9748870127915068e+00  -2.1106211933351751e+00  -2.3558063196719070e+00  -2.8198276449134947e+00  2.8196978652902480e+00  2.3557394539880305e+00  2.1104272738071197e+00  1.9748832152466720e+00  -1.7118857358548678e+00  -1.7676056694604896e+00  -1.8921995854089633e+00  -2.3561488727764686e+00  2.3560462590641493e+00  1.8920969237410710e+00  1.7673799381903001e+00  1.7116139515228121e+00  -1.4281008295263908e+00  -1.3728321119069509e+00  -1.2487078043806767e+00  -7.8519086077470235e-01  7.8521654403216878e-01  1.2485446101978215e+00  1.3725649359379013e+00  1.4275703019111559e+00  -1.1651186802419149e+00  -1.0298099633880129e+00  -7.8505404409585411e-01  -3.2161252497438286e-01  3.2157695024499594e-01  7.8486200244955984e-01  1.0295470859410072e+00  1.1643416546263923e+00  -9.4978254039905508e-01  -7.8484279439444438e-01  -5.4009903763280254e-01  -1.9733438541659767e-01  1.9716364146575999e-01  5.3988850206055627e-01  7.8460337802229274e-01  9.4877487436853258e-01  -7.8514738766012382e-01  -6.1972909944035515e-01  -4.0408688843878643e-01  -1.4081762471924214e-01  1.4322602488332908e-01  4.0645467216851661e-01  6.2202145242636397e-01  7.8445500220081621e-01  </DataArray> 
</PointData> 
</Piece>
</UnstructuredGrid>
</VTKFile>