<?xml version="1.0"?>
<VTKFile type="UnstructuredGrid"  version="0.1"  >
<UnstructuredGrid>
<Piece  NumberOfPoints="49" NumberOfCells="72">
<Points>
<DataArray  type="Float64"  NumberOfComponents="3"  format="ascii">0 0 0  0.1666666666666667 0 0  0.3333333333333333 0 0  0.5 0 0  0.6666666666666666 0 0  0.8333333333333334 0 0  1 0 0  0 0.1666666666666667 0  0.1666666666666667 0.1666666666666667 0  0.3333333333333333 0.1666666666666667 0  0.5 0.1666666666666667 0  0.6666666666666666 0.1666666666666667 0  0.8333333333333334 0.1666666666666667 0  1 0.1666666666666667 0  0 0.3333333333333333 0  0.1666666666666667 0.3333333333333333 0  0.3333333333333333 0.3333333333333333 0  0.5 0.3333333333333333 0  0.6666666666666666 0.3333333333333333 0  0.8333333333333334 0.3333333333333333 0  1 0.3333333333333333 0  0 0.5 0  0.1666666666666667 0.5 0  0.3333333333333333 0.5 0  0.5 0.5 0  0.6666666666666666 0.5 0  0.8333333333333334 0.5 0  1 0.5 0  0 0.6666666666666666 0  0.1666666666666667 0.6666666666666666 0  0.3333333333333333 0.6666666666666666 0  0.5 0.6666666666666666 0  0.6666666666666666 0.6666666666666666 0  0.8333333333333334 0.6666666666666666 0  1 0.6666666666666666 0  0 0.8333333333333334 0  0.1666666666666667 0.8333333333333334 0  0.3333333333333333 0.8333333333333334 0  0.5 0.8333333333333334 0  0.6666666666666666 0.8333333333333334 0  0.8333333333333334 0.8333333333333334 0  1 0.8333333333333334 0  0 1 0  0.1666666666666667 1 0  0.3333333333333333 1 0  0.5 1 0  0.6666666666666666 1 0  0.8333333333333334 1 0  1 1 0  </DataArray>
</Points>
<Cells>
<DataArray  type="UInt32"  Name="connectivity"  format="ascii">0 1 8  0 7 8  1 2 9  1 8 9  2 3 10  2 9 10  3 4 11  3 10 11  4 5 12  4 11 12  5 6 13  5 12 13  7 8 15  7 14 15  8 9 16  8 15 16  9 10 17  9 16 17  10 11 18  10 17 18  11 12 19  11 18 19  12 13 20  12 19 20  14 15 22  14 21 22  15 16 23  15 22 23  16 17 24  16 23 24  17 18 25  17 24 25  18 19 26  18 25 26  19 20 27  19 26 27  21 22 29  21 28 29  22 23 30  22 29 30  23 24 31  23 30 31  24 25 32  24 31 32  25 26 33  25 32 33  26 27 34  26 33 34  28 29 36  28 35 36  29 30 37  29 36 37  30 31 38  30 37 38  31 32 39  31 38 39  32 33 40  32 39 40  33 34 41  33 40 41  35 36 43  35 42 43  36 37 44  36 43 44  37 38 45  37 44 45  38 39 46  38 45 46  39 40 47  39 46 47  40 41 48  40 47 48  </DataArray>
<DataArray  type="UInt32"  Name="offsets"  format="ascii">3 6 9 12 15 18 21 24 27 30 33 36 39 42 45 48 51 54 57 60 63 66 69 72 75 78 81 84 87 90 93 96 99 102 105 108 111 114 117 120 123 126 129 132 135 138 141 144 147 150 153 156 159 162 165 168 171 174 177 180 183 186 189 192 195 198 201 204 207 210 213 216 </DataArray>
<DataArray  type="UInt8"  Name="types"  format="ascii">5 5 5 5 5 5 5 5 5 5 5 5 5 5 5 5 5 5 5 5 5 5 5 5 5 5 5 5 5 5 5 5 5 5 5 5 5 5 5 5 5 5 5 5 5 5 5 5 5 5 5 5 5 5 5 5 5 5 5 5 5 5 5 5 5 5 5 5 5 5 5 5 </DataArray>
</Cells>
<PointData  Scalars="f_7"> 
<DataArray  type="Float64"  Name="f_7"  format="ascii">-2.7942427479666116e-03  -8.0716186482713559e-03  -1.0349137370184409e-02  -9.4600779961455904e-03  -4.5413507455055041e-03  -9.1648947085811025e-04  -5.2611461603389533e-05  -7.7423032673828732e-02  -1.1379684802520341e-01  -1.5597989033872250e-01  -1.6887167881593285e-01  -1.5884474043197996e-01  -1.0988431570287835e-01  -7.5273770261153228e-02  -1.8697181596281767e-01  -3.0825244560492893e-01  -3.3230948652652953e-01  -3.3270310773599787e-01  -3.3489590949838416e-01  -3.1052596265013066e-01  -1.8444769509884865e-01  -3.0211825715284885e-01  -4.9741775802136773e-01  -4.9969648868494881e-01  -5.0002552207533113e-01  -4.9873619601046160e-01  -4.9846617363934104e-01  -3.0195694616459251e-01  -3.7128967462900814e-01  -6.0929186521420187e-01  -6.6492137391619277e-01  -6.6568736533195716e-01  -6.6091689762371675e-01  -6.1012226241875711e-01  -3.7245167877276797e-01  -3.7885031293972560e-01  -5.4798208020023587e-01  -7.5709052386829667e-01  -8.1781749304746321e-01  -7.5857266123266054e-01  -5.4861982703588907e-01  -3.8174610831527489e-01  -3.4857519793488140e-01  -4.5724566910329051e-01  -5.6365364095531567e-01  -6.1185335523192086e-01  -5.6749990129384387e-01  -4.6349786992006548e-01  -3.5198270648906205e-01  </DataArray> 
</PointData> 
</Piece>
</UnstructuredGrid>
</VTKFile>