<?xml version="1.0"?>
<VTKFile type="UnstructuredGrid"  version="0.1"  >
<UnstructuredGrid>
<Piece  NumberOfPoints="5101" NumberOfCells="10000">
<Points>
<DataArray  type="Float64"  NumberOfComponents="3"  format="ascii">0 0 0  0.2 0 0  0.4 0 0  0.6 0 0  0.8 0 0  1 0 0  1.2 0 0  1.4 0 0  1.6 0 0  1.8 0 0  2 0 0  2.2 0 0  2.4 0 0  2.6 0 0  2.8 0 0  3 0 0  3.2 0 0  3.4 0 0  3.6 0 0  3.8 0 0  4 0 0  4.2 0 0  4.4 0 0  4.6 0 0  4.8 0 0  5 0 0  5.2 0 0  5.4 0 0  5.6 0 0  5.8 0 0  6 0 0  6.2 0 0  6.4 0 0  6.6 0 0  6.8 0 0  7 0 0  7.2 0 0  7.4 0 0  7.6 0 0  7.8 0 0  8 0 0  8.199999999999999 0 0  8.4 0 0  8.6 0 0  8.800000000000001 0 0  9 0 0  9.199999999999999 0 0  9.4 0 0  9.6 0 0  9.800000000000001 0 0  10 0 0  0 0.2 0  0.2 0.2 0  0.4 0.2 0  0.6 0.2 0  0.8 0.2 0  1 0.2 0  1.2 0.2 0  1.4 0.2 0  1.6 0.2 0  1.8 0.2 0  2 0.2 0  2.2 0.2 0  2.4 0.2 0  2.6 0.2 0  2.8 0.2 0  3 0.2 0  3.2 0.2 0  3.4 0.2 0  3.6 0.2 0  3.8 0.2 0  4 0.2 0  4.2 0.2 0  4.4 0.2 0  4.6 0.2 0  4.8 0.2 0  5 0.2 0  5.2 0.2 0  5.4 0.2 0  5.6 0.2 0  5.8 0.2 0  6 0.2 0  6.2 0.2 0  6.4 0.2 0  6.6 0.2 0  6.8 0.2 0  7 0.2 0  7.2 0.2 0  7.4 0.2 0  7.6 0.2 0  7.8 0.2 0  8 0.2 0  8.199999999999999 0.2 0  8.4 0.2 0  8.6 0.2 0  8.800000000000001 0.2 0  9 0.2 0  9.199999999999999 0.2 0  9.4 0.2 0  9.6 0.2 0  9.800000000000001 0.2 0  10 0.2 0  0 0.4 0  0.2 0.4 0  0.4 0.4 0  0.6 0.4 0  0.8 0.4 0  1 0.4 0  1.2 0.4 0  1.4 0.4 0  1.6 0.4 0  1.8 0.4 0  2 0.4 0  2.2 0.4 0  2.4 0.4 0  2.6 0.4 0  2.8 0.4 0  3 0.4 0  3.2 0.4 0  3.4 0.4 0  3.6 0.4 0  3.8 0.4 0  4 0.4 0  4.2 0.4 0  4.4 0.4 0  4.6 0.4 0  4.8 0.4 0  5 0.4 0  5.2 0.4 0  5.4 0.4 0  5.6 0.4 0  5.8 0.4 0  6 0.4 0  6.2 0.4 0  6.4 0.4 0  6.6 0.4 0  6.8 0.4 0  7 0.4 0  7.2 0.4 0  7.4 0.4 0  7.6 0.4 0  7.8 0.4 0  8 0.4 0  8.199999999999999 0.4 0  8.4 0.4 0  8.6 0.4 0  8.800000000000001 0.4 0  9 0.4 0  9.199999999999999 0.4 0  9.4 0.4 0  9.6 0.4 0  9.800000000000001 0.4 0  10 0.4 0  0 0.6 0  0.2 0.6 0  0.4 0.6 0  0.6 0.6 0  0.8 0.6 0  1 0.6 0  1.2 0.6 0  1.4 0.6 0  1.6 0.6 0  1.8 0.6 0  2 0.6 0  2.2 0.6 0  2.4 0.6 0  2.6 0.6 0  2.8 0.6 0  3 0.6 0  3.2 0.6 0  3.4 0.6 0  3.6 0.6 0  3.8 0.6 0  4 0.6 0  4.2 0.6 0  4.4 0.6 0  4.6 0.6 0  4.8 0.6 0  5 0.6 0  5.2 0.6 0  5.4 0.6 0  5.6 0.6 0  5.8 0.6 0  6 0.6 0  6.2 0.6 0  6.4 0.6 0  6.6 0.6 0  6.8 0.6 0  7 0.6 0  7.2 0.6 0  7.4 0.6 0  7.6 0.6 0  7.8 0.6 0  8 0.6 0  8.199999999999999 0.6 0  8.4 0.6 0  8.6 0.6 0  8.800000000000001 0.6 0  9 0.6 0  9.199999999999999 0.6 0  9.4 0.6 0  9.6 0.6 0  9.800000000000001 0.6 0  10 0.6 0  0 0.8 0  0.2 0.8 0  0.4 0.8 0  0.6 0.8 0  0.8 0.8 0  1 0.8 0  1.2 0.8 0  1.4 0.8 0  1.6 0.8 0  1.8 0.8 0  2 0.8 0  2.2 0.8 0  2.4 0.8 0  2.6 0.8 0  2.8 0.8 0  3 0.8 0  3.2 0.8 0  3.4 0.8 0  3.6 0.8 0  3.8 0.8 0  4 0.8 0  4.2 0.8 0  4.4 0.8 0  4.6 0.8 0  4.8 0.8 0  5 0.8 0  5.2 0.8 0  5.4 0.8 0  5.6 0.8 0  5.8 0.8 0  6 0.8 0  6.2 0.8 0  6.4 0.8 0  6.6 0.8 0  6.8 0.8 0  7 0.8 0  7.2 0.8 0  7.4 0.8 0  7.6 0.8 0  7.8 0.8 0  8 0.8 0  8.199999999999999 0.8 0  8.4 0.8 0  8.6 0.8 0  8.800000000000001 0.8 0  9 0.8 0  9.199999999999999 0.8 0  9.4 0.8 0  9.6 0.8 0  9.800000000000001 0.8 0  10 0.8 0  0 1 0  0.2 1 0  0.4 1 0  0.6 1 0  0.8 1 0  1 1 0  1.2 1 0  1.4 1 0  1.6 1 0  1.8 1 0  2 1 0  2.2 1 0  2.4 1 0  2.6 1 0  2.8 1 0  3 1 0  3.2 1 0  3.4 1 0  3.6 1 0  3.8 1 0  4 1 0  4.2 1 0  4.4 1 0  4.6 1 0  4.8 1 0  5 1 0  5.2 1 0  5.4 1 0  5.6 1 0  5.8 1 0  6 1 0  6.2 1 0  6.4 1 0  6.6 1 0  6.8 1 0  7 1 0  7.2 1 0  7.4 1 0  7.6 1 0  7.8 1 0  8 1 0  8.199999999999999 1 0  8.4 1 0  8.6 1 0  8.800000000000001 1 0  9 1 0  9.199999999999999 1 0  9.4 1 0  9.6 1 0  9.800000000000001 1 0  10 1 0  0 1.2 0  0.2 1.2 0  0.4 1.2 0  0.6 1.2 0  0.8 1.2 0  1 1.2 0  1.2 1.2 0  1.4 1.2 0  1.6 1.2 0  1.8 1.2 0  2 1.2 0  2.2 1.2 0  2.4 1.2 0  2.6 1.2 0  2.8 1.2 0  3 1.2 0  3.2 1.2 0  3.4 1.2 0  3.6 1.2 0  3.8 1.2 0  4 1.2 0  4.2 1.2 0  4.4 1.2 0  4.6 1.2 0  4.8 1.2 0  5 1.2 0  5.2 1.2 0  5.4 1.2 0  5.6 1.2 0  5.8 1.2 0  6 1.2 0  6.2 1.2 0  6.4 1.2 0  6.6 1.2 0  6.8 1.2 0  7 1.2 0  7.2 1.2 0  7.4 1.2 0  7.6 1.2 0  7.8 1.2 0  8 1.2 0  8.199999999999999 1.2 0  8.4 1.2 0  8.6 1.2 0  8.800000000000001 1.2 0  9 1.2 0  9.199999999999999 1.2 0  9.4 1.2 0  9.6 1.2 0  9.800000000000001 1.2 0  10 1.2 0  0 1.4 0  0.2 1.4 0  0.4 1.4 0  0.6 1.4 0  0.8 1.4 0  1 1.4 0  1.2 1.4 0  1.4 1.4 0  1.6 1.4 0  1.8 1.4 0  2 1.4 0  2.2 1.4 0  2.4 1.4 0  2.6 1.4 0  2.8 1.4 0  3 1.4 0  3.2 1.4 0  3.4 1.4 0  3.6 1.4 0  3.8 1.4 0  4 1.4 0  4.2 1.4 0  4.4 1.4 0  4.6 1.4 0  4.8 1.4 0  5 1.4 0  5.2 1.4 0  5.4 1.4 0  5.6 1.4 0  5.8 1.4 0  6 1.4 0  6.2 1.4 0  6.4 1.4 0  6.6 1.4 0  6.8 1.4 0  7 1.4 0  7.2 1.4 0  7.4 1.4 0  7.6 1.4 0  7.8 1.4 0  8 1.4 0  8.199999999999999 1.4 0  8.4 1.4 0  8.6 1.4 0  8.800000000000001 1.4 0  9 1.4 0  9.199999999999999 1.4 0  9.4 1.4 0  9.6 1.4 0  9.800000000000001 1.4 0  10 1.4 0  0 1.6 0  0.2 1.6 0  0.4 1.6 0  0.6 1.6 0  0.8 1.6 0  1 1.6 0  1.2 1.6 0  1.4 1.6 0  1.6 1.6 0  1.8 1.6 0  2 1.6 0  2.2 1.6 0  2.4 1.6 0  2.6 1.6 0  2.8 1.6 0  3 1.6 0  3.2 1.6 0  3.4 1.6 0  3.6 1.6 0  3.8 1.6 0  4 1.6 0  4.2 1.6 0  4.4 1.6 0  4.6 1.6 0  4.8 1.6 0  5 1.6 0  5.2 1.6 0  5.4 1.6 0  5.6 1.6 0  5.8 1.6 0  6 1.6 0  6.2 1.6 0  6.4 1.6 0  6.6 1.6 0  6.8 1.6 0  7 1.6 0  7.2 1.6 0  7.4 1.6 0  7.6 1.6 0  7.8 1.6 0  8 1.6 0  8.199999999999999 1.6 0  8.4 1.6 0  8.6 1.6 0  8.800000000000001 1.6 0  9 1.6 0  9.199999999999999 1.6 0  9.4 1.6 0  9.6 1.6 0  9.800000000000001 1.6 0  10 1.6 0  0 1.8 0  0.2 1.8 0  0.4 1.8 0  0.6 1.8 0  0.8 1.8 0  1 1.8 0  1.2 1.8 0  1.4 1.8 0  1.6 1.8 0  1.8 1.8 0  2 1.8 0  2.2 1.8 0  2.4 1.8 0  2.6 1.8 0  2.8 1.8 0  3 1.8 0  3.2 1.8 0  3.4 1.8 0  3.6 1.8 0  3.8 1.8 0  4 1.8 0  4.2 1.8 0  4.4 1.8 0  4.6 1.8 0  4.8 1.8 0  5 1.8 0  5.2 1.8 0  5.4 1.8 0  5.6 1.8 0  5.8 1.8 0  6 1.8 0  6.2 1.8 0  6.4 1.8 0  6.6 1.8 0  6.8 1.8 0  7 1.8 0  7.2 1.8 0  7.4 1.8 0  7.6 1.8 0  7.8 1.8 0  8 1.8 0  8.199999999999999 1.8 0  8.4 1.8 0  8.6 1.8 0  8.800000000000001 1.8 0  9 1.8 0  9.199999999999999 1.8 0  9.4 1.8 0  9.6 1.8 0  9.800000000000001 1.8 0  10 1.8 0  0 2 0  0.2 2 0  0.4 2 0  0.6 2 0  0.8 2 0  1 2 0  1.2 2 0  1.4 2 0  1.6 2 0  1.8 2 0  2 2 0  2.2 2 0  2.4 2 0  2.6 2 0  2.8 2 0  3 2 0  3.2 2 0  3.4 2 0  3.6 2 0  3.8 2 0  4 2 0  4.2 2 0  4.4 2 0  4.6 2 0  4.8 2 0  5 2 0  5.2 2 0  5.4 2 0  5.6 2 0  5.8 2 0  6 2 0  6.2 2 0  6.4 2 0  6.6 2 0  6.8 2 0  7 2 0  7.2 2 0  7.4 2 0  7.6 2 0  7.8 2 0  8 2 0  8.199999999999999 2 0  8.4 2 0  8.6 2 0  8.800000000000001 2 0  9 2 0  9.199999999999999 2 0  9.4 2 0  9.6 2 0  9.800000000000001 2 0  10 2 0  0 2.2 0  0.2 2.2 0  0.4 2.2 0  0.6 2.2 0  0.8 2.2 0  1 2.2 0  1.2 2.2 0  1.4 2.2 0  1.6 2.2 0  1.8 2.2 0  2 2.2 0  2.2 2.2 0  2.4 2.2 0  2.6 2.2 0  2.8 2.2 0  3 2.2 0  3.2 2.2 0  3.4 2.2 0  3.6 2.2 0  3.8 2.2 0  4 2.2 0  4.2 2.2 0  4.4 2.2 0  4.6 2.2 0  4.8 2.2 0  5 2.2 0  5.2 2.2 0  5.4 2.2 0  5.6 2.2 0  5.8 2.2 0  6 2.2 0  6.2 2.2 0  6.4 2.2 0  6.6 2.2 0  6.8 2.2 0  7 2.2 0  7.2 2.2 0  7.4 2.2 0  7.6 2.2 0  7.8 2.2 0  8 2.2 0  8.199999999999999 2.2 0  8.4 2.2 0  8.6 2.2 0  8.800000000000001 2.2 0  9 2.2 0  9.199999999999999 2.2 0  9.4 2.2 0  9.6 2.2 0  9.800000000000001 2.2 0  10 2.2 0  0 2.4 0  0.2 2.4 0  0.4 2.4 0  0.6 2.4 0  0.8 2.4 0  1 2.4 0  1.2 2.4 0  1.4 2.4 0  1.6 2.4 0  1.8 2.4 0  2 2.4 0  2.2 2.4 0  2.4 2.4 0  2.6 2.4 0  2.8 2.4 0  3 2.4 0  3.2 2.4 0  3.4 2.4 0  3.6 2.4 0  3.8 2.4 0  4 2.4 0  4.2 2.4 0  4.4 2.4 0  4.6 2.4 0  4.8 2.4 0  5 2.4 0  5.2 2.4 0  5.4 2.4 0  5.6 2.4 0  5.8 2.4 0  6 2.4 0  6.2 2.4 0  6.4 2.4 0  6.6 2.4 0  6.8 2.4 0  7 2.4 0  7.2 2.4 0  7.4 2.4 0  7.6 2.4 0  7.8 2.4 0  8 2.4 0  8.199999999999999 2.4 0  8.4 2.4 0  8.6 2.4 0  8.800000000000001 2.4 0  9 2.4 0  9.199999999999999 2.4 0  9.4 2.4 0  9.6 2.4 0  9.800000000000001 2.4 0  10 2.4 0  0 2.6 0  0.2 2.6 0  0.4 2.6 0  0.6 2.6 0  0.8 2.6 0  1 2.6 0  1.2 2.6 0  1.4 2.6 0  1.6 2.6 0  1.8 2.6 0  2 2.6 0  2.2 2.6 0  2.4 2.6 0  2.6 2.6 0  2.8 2.6 0  3 2.6 0  3.2 2.6 0  3.4 2.6 0  3.6 2.6 0  3.8 2.6 0  4 2.6 0  4.2 2.6 0  4.4 2.6 0  4.6 2.6 0  4.8 2.6 0  5 2.6 0  5.2 2.6 0  5.4 2.6 0  5.6 2.6 0  5.8 2.6 0  6 2.6 0  6.2 2.6 0  6.4 2.6 0  6.6 2.6 0  6.8 2.6 0  7 2.6 0  7.2 2.6 0  7.4 2.6 0  7.6 2.6 0  7.8 2.6 0  8 2.6 0  8.199999999999999 2.6 0  8.4 2.6 0  8.6 2.6 0  8.800000000000001 2.6 0  9 2.6 0  9.199999999999999 2.6 0  9.4 2.6 0  9.6 2.6 0  9.800000000000001 2.6 0  10 2.6 0  0 2.8 0  0.2 2.8 0  0.4 2.8 0  0.6 2.8 0  0.8 2.8 0  1 2.8 0  1.2 2.8 0  1.4 2.8 0  1.6 2.8 0  1.8 2.8 0  2 2.8 0  2.2 2.8 0  2.4 2.8 0  2.6 2.8 0  2.8 2.8 0  3 2.8 0  3.2 2.8 0  3.4 2.8 0  3.6 2.8 0  3.8 2.8 0  4 2.8 0  4.2 2.8 0  4.4 2.8 0  4.6 2.8 0  4.8 2.8 0  5 2.8 0  5.2 2.8 0  5.4 2.8 0  5.6 2.8 0  5.8 2.8 0  6 2.8 0  6.2 2.8 0  6.4 2.8 0  6.6 2.8 0  6.8 2.8 0  7 2.8 0  7.2 2.8 0  7.4 2.8 0  7.6 2.8 0  7.8 2.8 0  8 2.8 0  8.199999999999999 2.8 0  8.4 2.8 0  8.6 2.8 0  8.800000000000001 2.8 0  9 2.8 0  9.199999999999999 2.8 0  9.4 2.8 0  9.6 2.8 0  9.800000000000001 2.8 0  10 2.8 0  0 3 0  0.2 3 0  0.4 3 0  0.6 3 0  0.8 3 0  1 3 0  1.2 3 0  1.4 3 0  1.6 3 0  1.8 3 0  2 3 0  2.2 3 0  2.4 3 0  2.6 3 0  2.8 3 0  3 3 0  3.2 3 0  3.4 3 0  3.6 3 0  3.8 3 0  4 3 0  4.2 3 0  4.4 3 0  4.6 3 0  4.8 3 0  5 3 0  5.2 3 0  5.4 3 0  5.6 3 0  5.8 3 0  6 3 0  6.2 3 0  6.4 3 0  6.6 3 0  6.8 3 0  7 3 0  7.2 3 0  7.4 3 0  7.6 3 0  7.8 3 0  8 3 0  8.199999999999999 3 0  8.4 3 0  8.6 3 0  8.800000000000001 3 0  9 3 0  9.199999999999999 3 0  9.4 3 0  9.6 3 0  9.800000000000001 3 0  10 3 0  0 3.2 0  0.2 3.2 0  0.4 3.2 0  0.6 3.2 0  0.8 3.2 0  1 3.2 0  1.2 3.2 0  1.4 3.2 0  1.6 3.2 0  1.8 3.2 0  2 3.2 0  2.2 3.2 0  2.4 3.2 0  2.6 3.2 0  2.8 3.2 0  3 3.2 0  3.2 3.2 0  3.4 3.2 0  3.6 3.2 0  3.8 3.2 0  4 3.2 0  4.2 3.2 0  4.4 3.2 0  4.6 3.2 0  4.8 3.2 0  5 3.2 0  5.2 3.2 0  5.4 3.2 0  5.6 3.2 0  5.8 3.2 0  6 3.2 0  6.2 3.2 0  6.4 3.2 0  6.6 3.2 0  6.8 3.2 0  7 3.2 0  7.2 3.2 0  7.4 3.2 0  7.6 3.2 0  7.8 3.2 0  8 3.2 0  8.199999999999999 3.2 0  8.4 3.2 0  8.6 3.2 0  8.800000000000001 3.2 0  9 3.2 0  9.199999999999999 3.2 0  9.4 3.2 0  9.6 3.2 0  9.800000000000001 3.2 0  10 3.2 0  0 3.4 0  0.2 3.4 0  0.4 3.4 0  0.6 3.4 0  0.8 3.4 0  1 
[...]
<PointData  Scalars="f_16"> 
<DataArray  type="Float64"  Name="f_16"  format="ascii">9.9997470748316586e-01  9.9997378591332720e-01  9.9997273921411467e-01  9.9997153451854282e-01  9.9997013254169476e-01  9.9996848742788735e-01  9.9996654708480570e-01  9.9996425420151802e-01  9.9996154815911031e-01  9.9995836802877602e-01  9.9995465680011253e-01  9.9995036688104544e-01  9.9994546675266083e-01  9.9993994844896916e-01  9.9993383527785706e-01  9.9992718893719212e-01  9.9992011495945576e-01  9.9991276530262541e-01  9.9990533696114947e-01  9.9989806574977136e-01  9.9989121493074640e-01  9.9988505907283776e-01  9.9987986434758347e-01  9.9987586723106125e-01  9.9987325411131123e-01  9.9987214444877526e-01  9.9987257981704991e-01  9.9987452038652047e-01  9.9987784933737445e-01  9.9988238451621270e-01  9.9988789562217939e-01  9.9989412452532811e-01  9.9990080609252074e-01  9.9990768712300149e-01  9.9991454157642046e-01  9.9992118104953542e-01  9.9992746025127976e-01  9.9993327789719877e-01  9.9993857390727281e-01  9.9994332401994579e-01  9.9994753295465644e-01  9.9995122711972428e-01  9.9995444763787156e-01  9.9995724420740217e-01  9.9995967007851949e-01  9.9996177822853882e-01  9.9996361867841899e-01  9.9996523680514493e-01  9.9996667246219162e-01  9.9996795971206454e-01  9.9997446331916851e-01  9.9997265833834037e-01  9.9997147538823250e-01  9.9997010743722514e-01  9.9996850561992456e-01  9.9996661114656216e-01  9.9996435484531332e-01  9.9996165738969600e-01  9.9995843052680955e-01  9.9995457965646994e-01  9.9995000810885148e-01  9.9994462340786838e-01  9.9993834566643491e-01  9.9993111802109269e-01  9.9992291867155625e-01  9.9991377366248313e-01  9.9990376907687306e-01  9.9989306088477425e-01  9.9988188041945436e-01  9.9987053346168209e-01  9.9985939130964119e-01  9.9984887304831749e-01  9.9983941946136834e-01  9.9983146048451244e-01  9.9982537950662065e-01  9.9982147885007200e-01  9.9981995110276989e-01  9.9982086045535723e-01  9.9982413684580795e-01  9.9982958377383546e-01  9.9983689852688151e-01  9.9984570171525466e-01  9.9985557182490914e-01  9.9986608015998080e-01  9.9987682204194561e-01  9.9988744124885176e-01  9.9989764610125220e-01  9.9990721700809315e-01  9.9991600642468059e-01  9.9992393290853543e-01  9.9993097126542996e-01  9.9993714072316586e-01  9.9994249276754366e-01  9.9994709984606800e-01  9.9995104569386861e-01  9.9995441763574378e-01  9.9995730090685175e-01  9.9995977482319587e-01  9.9996191051353711e-01  9.9996376987828639e-01  9.9996540544645696e-01  9.9997235944330054e-01  9.9997034921493388e-01  9.9996883321678121e-01  9.9996704973858541e-01  9.9996492686662242e-01  9.9996237739058780e-01  9.9995929774345016e-01  9.9995556787819695e-01  9.9995105258013051e-01  9.9994560479219696e-01  9.9993907156045458e-01  9.9993130315047929e-01  9.9992216570173365e-01  9.9991155743768645e-01  9.9989942791300845e-01  9.9988579906732578e-01  9.9987078603176927e-01  9.9985461482872928e-01  9.9983763351088073e-01  9.9982031313688202e-01  9.9980323550149885e-01  9.9978706586189048e-01  9.9977251099338516e-01  9.9976026550139363e-01  9.9975095192022745e-01  9.9974506211494518e-01  9.9974290826897960e-01  9.9974459091727763e-01  9.9974998908906920e-01  9.9975877410606651e-01  9.9977044471879428e-01  9.9978437793613584e-01  9.9979988782943763e-01  9.9981628412586776e-01  9.9983292346628894e-01  9.9984924835337197e-01  9.9986481143674577e-01  9.9987928526927750e-01  9.9989245958252193e-01  9.9990422926113465e-01  9.9991457655470828e-01  9.9992355081025064e-01  9.9993124836728953e-01  9.9993779445485420e-01  9.9994332814216724e-01  9.9994799073450602e-01  9.9995191752199031e-01  9.9995523248498941e-01  9.9995804540956590e-01  9.9996045083108365e-01  9.9996252826421561e-01  9.9996998448270880e-01  9.9996773922808246e-01  9.9996580052637818e-01  9.9996348197946061e-01  9.9996067883084361e-01  9.9995726288713949e-01  9.9995308034023589e-01  9.9994795082362942e-01  9.9994166847652699e-01  9.9993400595133619e-01  9.9992472240178287e-01  9.9991357646911361e-01  9.9990034506835102e-01  9.9988484828837054e-01  9.9986697990013518e-01  9.9984674180662025e-01  9.9982427934200324e-01  9.9979991283085778e-01  9.9977415957707516e-01  9.9974773989621724e-01  9.9972156138317403e-01  9.9969667764387737e-01  9.9967422124680017e-01  9.9965531526354423e-01  9.9964097260043105e-01  9.9963199618384335e-01  9.9962889475582517e-01  9.9963182777188686e-01  9.9964058863157756e-01  9.9965462904375280e-01  9.9967312023503763e-01  9.9969504066301906e-01  9.9971927627214041e-01  9.9974471876052562e-01  9.9977034957509037e-01  9.9979530150339257e-01  9.9981889456217699e-01  9.9984064726551991e-01  9.9986026753168966e-01  9.9987762916595946e-01  9.9989274014896734e-01  9.9990570823069114e-01  9.9991670802641197e-01  9.9992595233829740e-01  9.9993366907601700e-01  9.9994008408435719e-01  9.9994540945774180e-01  9.9994983650700064e-01  9.9995353237950979e-01  9.9995663934385914e-01  9.9995927586422384e-01  9.9996729570788356e-01  9.9996478246574216e-01  9.9996230995089819e-01  9.9995930619694984e-01  9.9995562017059569e-01  9.9995106521203880e-01  9.9994541487680844e-01  9.9993840032066805e-01  9.9992971040294332e-01  9.9991899599413037e-01  9.9990588022063998e-01  9.9988997646632616e-01  9.9987091574843456e-01  9.9984838444806690e-01  9.9982217216754110e-01  9.9979222763873332e-01  9.9975871818189421e-01  9.9972208548633812e-01  9.9968308798383487e-01  9.9964281858288906e-01  9.9960268691010135e-01  9.9956435820361744e-01  9.9952964687575674e-01  9.9950037094773048e-01  9.9947818254949639e-01  9.9946439722002978e-01  9.9945984844184677e-01  9.9946479200324034e-01  9.9947887717143891e-01  9.9950118981639480e-01  9.9953035947977009e-01  9.9956471130766444e-01  9.9960243742416355e-01  9.9964176183642306e-01  9.9968107770285064e-01  9.9971904383180155e-01  9.9975463618939286e-01  9.9978715787940986e-01  9.9981621623810546e-01  9.9984167801992929e-01  9.9986361353333231e-01  9.9988223881207972e-01  9.9989786234080114e-01  9.9991084020501120e-01  9.9992154126759913e-01  9.9993032230102097e-01  9.9993751195272018e-01  9.9994340190179709e-01  9.9994824343912203e-01  9.9995224782943448e-01  9.9995558907331350e-01  9.9996424519762428e-01  9.9996142847089042e-01  9.9995828594853797e-01  9.9995441049829370e-01  9.9994958663775846e-01  9.9994354523392748e-01  9.9993595596243456e-01  9.9992642154797551e-01  9.9991447552891910e-01  9.9989958585320005e-01  9.9988116713358199e-01  9.9985860472131161e-01  9.9983129368512391e-01  9.9979869504069185e-01  9.9976040988308923e-01  9.9971626922045786e-01  9.9966643327567395e-01  9.9961148915035980e-01  9.9955253085503826e-01  9.9949120214410592e-01  9.9942968205305971e-01  9.9937059713475773e-01  9.9931685398745906e-01  9.9927140012461280e-01  9.9923693799105329e-01  9.9921563173262795e-01  9.9920885434926676e-01  9.9921702044708238e-01  9.9923953616096939e-01  9.9927487579467944e-01  9.9932077011440923e-01  9.9937447076245578e-01  9.9943304415217982e-01  9.9949364843572719e-01  9.9955375710248129e-01  9.9961130837187639e-01  9.9966477597885628e-01  9.9971317032307561e-01  9.9975598718741387e-01  9.9979312411010057e-01  9.9982478311722855e-01  9.9985137456294881e-01  9.9987343190877309e-01  9.9989154261211655e-01  9.9990629657716779e-01  9.9991825108413446e-01  9.9992790968190481e-01  9.9993571197098696e-01  9.9994203123961778e-01  9.9994717729435678e-01  9.9995140235337932e-01  9.9996078035847324e-01  9.9995762331168636e-01  9.9995364594911107e-01  9.9994867009813571e-01  9.9994239161520371e-01  9.9993442641183716e-01  9.9992429731362109e-01  9.9991142270059330e-01  9.9989510944047677e-01  9.9987455360628819e-01  9.9984885347931673e-01  9.9981704016618445e-01  9.9977813146902461e-01  9.9973121397751896e-01  9.9967555615492631e-01  9.9961075095931384e-01  9.9953688002150420e-01  9.9945468289560080e-01  9.9936570558880400e-01  9.9927239472212093e-01  9.9917810045772082e-01  9.9908695616718990e-01  9.9900361806021187e-01  9.9893287333467984e-01  9.9887915666088345e-01  9.9884604399958887e-01  9.9883581010464351e-01  9.9884913362260752e-01  9.9888500914924161e-01  9.9894088421730121e-01  9.9901299257846965e-01  9.9909681693899022e-01  9.9918759487637232e-01  9.9928078441059731e-01  9.9937242665375059e-01  9.9945937336818425e-01  9.9953937753753808e-01  9.9961106806936839e-01  9.9967384233443590e-01  9.9972771288265283e-01  9.9977314009693674e-01  9.9981087418372860e-01  9.9984182072776440e-01  9.9986693603276455e-01  9.9988715256336103e-01  9.9990333113297503e-01  9.9991623471195479e-01  9.9992651833437762e-01  9.9993473003492928e-01  9.9994131862117341e-01  9.9994664508130815e-01  9.9995684505518323e-01  9.9995331141797639e-01  9.9994830262751744e-01  9.9994194997999253e-01  9.9993382894557148e-01  9.9992339724002088e-01  9.9990997266829718e-01  9.9989271220584164e-01  9.9987059581104976e-01  9.9984242009799795e-01  9.9980680883648754e-01  9.9976224900907418e-01  9.9970716234164758e-01  9.9964002207227864e-01  9.9955952223264333e-01  9.9946480080116262e-01  9.9935570791467332e-01  9.9923309587228881e-01  9.9909909041621103e-01  9.9895728632749570e-01  9.9881280051635646e-01  9.9867211951168988e-01  9.9854270141141133e-01  9.9843233624598537e-01  9.9834832696205122e-01  9.9829661104437450e-01  9.9828098030974621e-01  9.9830255619263875e-01  9.9835963352841306e-01  9.9844792717345743e-01  9.9856116638088654e-01  9.9869190977402988e-01  9.9883241987251226e-01  9.9897544612162792e-01  9.9911480949872233e-01  9.9924574119841236e-01  9.9936498350025693e-01  9.9947069986581416e-01  9.9956225932990572e-01  9.9963996008528511e-01  9.9970474519887975e-01  9.9975794646287230e-01  9.9980107572912214e-01  9.9983566972006155e-01  9.9986318529413865e-01  9.9988493718879290e-01  9.9990206844168672e-01  9.9991554392562976e-01  9.9992615878575286e-01  9.9993455534969855e-01  9.9994124385713967e-01  9.9995238153554900e-01  9.9994843835759495e-01  9.9994216761093180e-01  9.9993410970948071e-01  9.9992367893128675e-01  9.9991011826920417e-01  9.9989246313882418e-01  9.9986950471434666e-01  9.9983975754051768e-01  9.9980143869096272e-01  9.9975246892215353e-01  9.9969050968688988e-01  9.9961305283237523e-01  9.9951758113191425e-01  9.9940181575773390e-01  9.9926405925854200e-01  9.9910362748869830e-01  9.9892134018302969e-01  9.9872000882488798e-01  9.9850482739520130e-01  9.9828354659689211e-01  9.9806630909135430e-01  9.9786505581628637e-01  9.9769248804731692e-01  9.9756067813547566e-01  9.9747953682733814e-01  9.9745542634541140e-01  9.9749021742952892e-01  9.9758100843734554e-01  9.9772057316249518e-01  9.9789843001347245e-01  9.9810228759217645e-01  9.9831956307476266e-01  9.9853869902820203e-01  9.9875009753530064e-01  9.9894660694667581e-01  9.9912359810299822e-01  9.9927873105772802e-01  9.9941153607657085e-01  9.9952292297811840e-01  9.9961470492749904e-01  9.9968918972073140e-01  9.9974886224462711e-01  9.9979616031758889e-01  9.9983333310496680e-01  9.9986236534098616e-01  9.9988494954143614e-01  9.9990249021195621e-01  9.9991612716455691e-01  9.9992676840826855e-01  9.9993512609783963e-01  9.9994733332740793e-01  9.9994295469183414e-01  9.9993515689562817e-01  9.9992501091348274e-01  9.9991171842411675e-01  9.9989423528928967e-01  9.9987121365841858e-01  9.9984094018683445e-01  9.9980127619299020e-01  9.9974960961358483e-01  9.9968283385798029e-01  9.9959737483691291e-01  9.9948929370059802e-01  9.9935449746751803e-01  9.9918908995524858e-01  9.9898988732609750e-01  9.9875510164113823e-01  9.9848515844066810e-01  9.9818356033440669e-01  9.9785764455553227e-01  9.9751902494924727e-01  9.9718348439771975e-01  9.9687012260733410e-01  9.9659968715893144e-01  9.9639221565153990e-01  9.9626434615002490e-01  9.9622682983012834e-01  9.9628281774927341e-01  9.9642734903875008e-01  9.9664817220154323e-01  9.9692768713920621e-01  9.9724552941174205e-01  9.9758121833616464e-01  9.9791636875042400e-01  9.9823616417308125e-01  9.9853001756849058e-01  9.9879152941389249e-01  9.9901795413092565e-01  9.9920940661367075e-01  9.9936800526962877e-01  9.9949708704654305e-01  9.9960056755934912e-01  9.9968246950512640e-01  9.9974660964685835e-01  9.9979641739684133e-01  9.9983485241151215e-01  9.9986439020849238e-01  9.9988705000278322e-01  9.9990444523878885e-01  9.9991784321997923e-01  9.9992822513665802e-01  9.9994164924991413e-01  9.9993682097570480e-01  9.9992719815552722e-01  9.9991452783213353e-01  9.9989773582424279e-01  9.9987540022420252e-01  9.9984566132219532e-01  9.9980612094963783e-01  9.9975373792771127e-01  9.9968473223556054e-01  9.9959451875828187e-01  9.9947770200034280e-01  9.9932817512930705e-01  9.9913937795857644e-01  9.9890477478534434e-01  9.9861860770653188e-01  9.9827695529545468e-01  9.9787907115492003e-01  9.9742888664103591e-01  9.9693644267699200e-01  9.9641889172901421e-01  9.9590063077615287e-01  9.9541215411080031e-01  9.9498740743848324e-01  9.9465978953712153e-01  9.9445740603983268e-01  9.9439856578431207e-01  9.9448863040884572e-01  9.9471906826344780e-01  9.9506897787313597e-01  9.9550865381207465e-01  9.9600424592382397e-01  9.9652239763867057e-01  9.9703394959150615e-01  9.9751621690400860e-01  9.9795379650166183e-01  9.9833818674934005e-01  9.9866665016814282e-01  9.9894074495036811e-01  9.9916485439176006e-01  9.9934491734291109e-01  9.9948744959202152e-01  9.9959886491111416e-01  9.9968505746854486e-01  9.9975118764582838e-01  9.9980161162956060e-01  9.9983990312310245e-01  9.9986892714085163e-01  9.9989093749596958e-01  9.9990767949710635e-01  9.9992048695477365e-01  9.9993528860471848e-01  9.9993001384675007e-01  9.9991823995091278e-01  9.9990256111331854e-01  9.9988155150586189e-01  9.9985330094469305e-01  9.9981527811923721e-01  9.9976417152900299e-01  9.9969571472007479e-01  9.9960451068067557e-01  9.9948388258559739e-01  9.9932579505631824e-01  9.9912091135995695e-01  9.9885887518091565e-01  9.9852892510665248e-01  9.9812095532308764e-01  9.9762711124034809e-01  9.9704393393932889e-01  9.9637492472257494e-01  9.9563318789752953e-01  9.9484355697549576e-01  9.9404339809836584e-01  9.9328124573322452e-01  9.9261270025170645e-01  9.9209366881526850e-01  9.9177194549760028e-01  9.9167897357007939e-01  9.9182397515305742e-01  9.9219217424651729e-01  9.9274765904098949e-01  9.9344000852087644e-01  9.9421276913709122e-01  9.9501161006029404e-01  9.9579048818087379e-01  9.9651505906680249e-01  9.9716344504029342e-01  9.9772503372034016e-01  9.9819816663388694e-01  9.9858748147033216e-01  9.9890143886681204e-01  9.9915031619887107e-01  9.9934475441903736e-01  9.9949481983228472e-01  9.9960948256635707e-01  9.9969639813454136e-01  9.9976188862635929e-01  9.9981104114034736e-01  9.9984786401499670e-01  9.9987546157695517e-01  9.9989620381001076e-01  9.9991187850845986e-01  9.9992822748664578e-01  9.9992253297356437e-01  9.9990826258110865e-01  9.9988905462450139e-01  9.9986304361688716e-01  9.9982770042265678e-01  9.9977962955518107e-01  9.9971432496068657e-01  9.9962588876473824e-01  9.9950672826952969e-01  9.9934726390439332e-01  9.9913570669516305e-01  9.9885799910402773e-01  9.9849805634612054e-01  9.9803849011867540e-01  9.9746202837868159e-01  9.9675383704943554e-01  9.9590486365415953e-01  9.9491611446304906e-01  9.9380341594806876e-01  9.9260172071815722e-01  9.9136752039151066e-01  9.9017767293000614e-01  9.8912326814100748e-01  9.8829827807557935e-01  9.8778455316781644e-01  9.8763659258034087e-01  9.8787044554619463e-01  9.8846031395588685e-01  9.8934400731739391e-01  9.9043542109634564e-01  9.9164010612141407e-01  9.9286964730315419e-01  9.9405181827225320e-01  9.9513542705489710e-01  9.9609046051465167e-01  9.9690505668456386e-01  9.9758097868024009e-01  9.9812891643057344e-01  9.9856442584322991e-01  9.9890484916327682e-01  9.9916723852649703e-01  9.9936713142745792e-01  9.9951796516354496e-01  9.9963092286087440e-01  9.9971504064311101e-01  9.9977745078302738e-01  9.9982367709223763e-01  9.9985793155270819e-01  9.9988338465301074e-01  9.9990239737389919e-01  9.9992046597525019e-01  9.9991440841834967e-01  9.9989728997316940e-01  9.9987401449646396e-01  9.9984217832860900e-01  9.9979848433274721e-01  9.9973844874876916e-01  9.9965603663645286e-01  9.9954322463257328e-01  9.9938950273103633e-01  9.9918134975297046e-01  9.9890175416286198e-01  9.9852990673437625e-01  9.9804126579838759e-01  9.9740828465483466e-01  9.9660217670261142e-01  9.9559613819834780e-01  9.9437038381574938e-01  9.9291908176836730e-01  9.9125870707289310e-01  9.8943643294978578e-01  9.8753609814776933e-01  9.8567845873703896e-01  9.8401257362201977e-01  9.8269698465754940e-01  9.8187290252586990e-01  9.8163573939322890e-01  9.8201378883175339e-01  9.8296159867662558e-01  9.8437053192253754e-01  9.8609260687365419e-01  9.8796937536587504e-01  9.8985729877870354e-01  9.9164417510412006e-01  9.9325537541234798e-01  9.9465186170554953e-01  9.9582332783906236e-01  9.9677962586149871e-01  9.9754267859429036e-01  9.9814000668469249e-01  9.9860017471311580e-01  9.9894997506375061e-01  9.9921296197826215e-01  9.9940892003543913e-01  9.9955391186120579e-01  9.9966063936259419e-01  9.9973893882730924e-01  9.9979629946226112e-01  9.9983834479106748e-01  9.9986924922759168e-01  9.9989208211918068e-01  9.9991203574509790e-01  9.9990570772765841e-01  9.9988540158645811e-01  9.9985752891773994e-01  9.9981904245735242e-01  9.9976571433479244e-01  9.9969172262553474e-01  9.9958912222268625e-01  9.9944718713951353e-01  9.9925162507735332e-01  9.9898369275622856e-01  9.9861928959224899e-01  9.9812818673057524e-01  9.9747366636550383e-01  9.9661300476383008e-01  9.9549941693170896e-01  9.9408624316092253e-01  9.9233419358789399e-01  9.9022219970606562e-01  9.8776161852684541e-01  9.8501200311192250e-01  9.8209446371344977e-01  9.7919645532340771e-01  9.7656108646886763e-01  9.7445660148427948e-01  9.7312845336069043e-01  9.7274550901150925e-01  9.7335837575767226e-01  9.7488617351294882e-01  9.7713733556475091e-01  9.7985588062347806e-01  9.8277550295812033e-01  9.8566426393161077e-01  9.8835035509593949e-01  9.9072846776124213e-01  9.9275219450364638e-01  9.9441950567060100e-01  9.9575704095133954e-01  9.9680662401464204e-01  9.9761532711596845e-01  9.9822906526065158e-01  9.9868905501238336e-01  9.9903030644947277e-01  9.9928140118737641e-01  9.9946498609606726e-01  9.9959859366397164e-01  9.9969554861203846e-01  9.9976582771935218e-01  9.9981681044059445e-01  9.9985390055336687e-01  9.9988102245516031e-01  9.9990300738507643e-01  9.9989654183820098e-01  9.9987274289561689e-01  9.9983978644709559e-01  9.9979387505249684e-01  9.9972968196824008e-01  9.9963978292356959e-01  9.9951390971382970e-01  9.9933799248874100e-01  9.9909296898731603e-01  9.9875336815000015e-01  9.9828573469143511e-01  9.9764706712992557e-01  9.9678361460828957e-01  9.9563063561391973e-01  9.9411406611438524e-01  9.9215543244774018e-01  9.8968163995260228e-01  9.8664118416165336e-01  9.8302739364965752e-01  9.7890695019641794e-01  9.7444783854395545e-01  9.6993576963996930e-01  9.6576460132652964e-01  9.6238878135481654e-01  9.6023808622799367e-01  9.5961493138289966e-01  9.6061135459301927e-01  9.6308189023591395e-01  9.6668530644446371e-01  9.7097597782411305e-01  9.7550615570901167e-01  9.7990411603267868e-01  9.8391238215484234e-01  9.8738961601506647e-01  9.9028985712033024e-01  9.9263335970069688e-01  9.9447885890877996e-01  9.9590196306876178e-01  9.9698064488841953e-01  9.9778684140174212e-01  9.9838251360956798e-01  9.9881857746309666e-01  9.9913546446344048e-01  9.9936445875815638e-01  9.9952928287160436e-01  9.9964763927213773e-01  9.9973256850234404e-01  9.9979357641261579e-01  9.9983753287560118e-01  9.9986936786517910e-01  9.9989349648312298e-01  9.9988706872183719e-01  9.9985953267810324e-01  9.9982108994428009e-01  9.9976709326189805e-01  9.9969095568385213e-01  9.9958339031905030e-01  9.9943138779797214e-01  9.9921686649489228e-01  9.9891493426232558e-01  9.9849172440842116e-01  9.9790183055695825e-01  9.9708549221735765e-01  9.9596591397344447e-01  9.9444748328679455e