<?xml version="1.0"?>
<VTKFile type="UnstructuredGrid"  version="0.1"  >
<UnstructuredGrid>
<Piece  NumberOfPoints="225" NumberOfCells="396">
<Points>
<DataArray  type="Float64"  NumberOfComponents="3"  format="ascii">0 0 0  0.07692307692307693 0 0  0.1538461538461539 0 0  0.2307692307692308 0 0  0.3076923076923077 0 0  0.3846153846153846 0 0  0.4615384615384616 0 0  0.5384615384615384 0 0  0.6153846153846154 0 0  0.6923076923076923 0 0  0.7692307692307693 0 0  0.8461538461538461 0 0  0.9230769230769231 0 0  1 0 0  0 0.07692307692307693 0  0.07692307692307693 0.07692307692307693 0  0.1538461538461539 0.07692307692307693 0  0.2307692307692308 0.07692307692307693 0  0.3076923076923077 0.07692307692307693 0  0.3846153846153846 0.07692307692307693 0  0.4615384615384616 0.07692307692307693 0  0.5384615384615384 0.07692307692307693 0  0.6153846153846154 0.07692307692307693 0  0.6923076923076923 0.07692307692307693 0  0.7692307692307693 0.07692307692307693 0  0.8461538461538461 0.07692307692307693 0  0.9230769230769231 0.07692307692307693 0  1 0.07692307692307693 0  0 0.1538461538461539 0  0.07692307692307693 0.1538461538461539 0  0.1538461538461539 0.1538461538461539 0  0.2307692307692308 0.1538461538461539 0  0.3076923076923077 0.1538461538461539 0  0.3846153846153846 0.1538461538461539 0  0.4615384615384616 0.1538461538461539 0  0.5384615384615384 0.1538461538461539 0  0.6153846153846154 0.1538461538461539 0  0.6923076923076923 0.1538461538461539 0  0.7692307692307693 0.1538461538461539 0  0.8461538461538461 0.1538461538461539 0  0.9230769230769231 0.1538461538461539 0  1 0.1538461538461539 0  0 0.2307692307692308 0  0.07692307692307693 0.2307692307692308 0  0.1538461538461539 0.2307692307692308 0  0.2307692307692308 0.2307692307692308 0  0.3076923076923077 0.2307692307692308 0  0.3846153846153846 0.2307692307692308 0  0.4615384615384616 0.2307692307692308 0  0.5384615384615384 0.2307692307692308 0  0.6153846153846154 0.2307692307692308 0  0.6923076923076923 0.2307692307692308 0  0.7692307692307693 0.2307692307692308 0  0.8461538461538461 0.2307692307692308 0  0.9230769230769231 0.2307692307692308 0  1 0.2307692307692308 0  0 0.3076923076923077 0  0.07692307692307693 0.3076923076923077 0  0.1538461538461539 0.3076923076923077 0  0.2307692307692308 0.3076923076923077 0  0.3076923076923077 0.3076923076923077 0  0.3846153846153846 0.3076923076923077 0  0.4615384615384616 0.3076923076923077 0  0.5384615384615384 0.3076923076923077 0  0.6153846153846154 0.3076923076923077 0  0.6923076923076923 0.3076923076923077 0  0.7692307692307693 0.3076923076923077 0  0.8461538461538461 0.3076923076923077 0  0.9230769230769231 0.3076923076923077 0  1 0.3076923076923077 0  0 0.3846153846153846 0  0.07692307692307693 0.3846153846153846 0  0.1538461538461539 0.3846153846153846 0  0.2307692307692308 0.3846153846153846 0  0.3076923076923077 0.3846153846153846 0  0.3846153846153846 0.3846153846153846 0  0.4615384615384616 0.3846153846153846 0  0.5384615384615384 0.3846153846153846 0  0.6153846153846154 0.3846153846153846 0  0.6923076923076923 0.3846153846153846 0  0.7692307692307693 0.3846153846153846 0  0.8461538461538461 0.3846153846153846 0  0.9230769230769231 0.3846153846153846 0  1 0.3846153846153846 0  0 0.4615384615384616 0  0.07692307692307693 0.4615384615384616 0  0.1538461538461539 0.4615384615384616 0  0.2307692307692308 0.4615384615384616 0  0.3076923076923077 0.4615384615384616 0  0.3846153846153846 0.4615384615384616 0  0.4615384615384616 0.4615384615384616 0  0.5384615384615384 0.4615384615384616 0  0.6153846153846154 0.4615384615384616 0  0.6923076923076923 0.4615384615384616 0  0.7692307692307693 0.4615384615384616 0  0.8461538461538461 0.4615384615384616 0  0.9230769230769231 0.4615384615384616 0  1 0.4615384615384616 0  0 0.5384615384615384 0  0.07692307692307693 0.5384615384615384 0  0.1538461538461539 0.5384615384615384 0  0.2307692307692308 0.5384615384615384 0  0.3076923076923077 0.5384615384615384 0  0.3846153846153846 0.5384615384615384 0  0.4615384615384616 0.5384615384615384 0  0.5384615384615384 0.5384615384615384 0  0.6153846153846154 0.5384615384615384 0  0.6923076923076923 0.5384615384615384 0  0.7692307692307693 0.5384615384615384 0  0.8461538461538461 0.5384615384615384 0  0.9230769230769231 0.5384615384615384 0  1 0.5384615384615384 0  0 0.6153846153846154 0  0.07692307692307693 0.6153846153846154 0  0.1538461538461539 0.6153846153846154 0  0.2307692307692308 0.6153846153846154 0  0.3076923076923077 0.6153846153846154 0  0.3846153846153846 0.6153846153846154 0  0.4615384615384616 0.6153846153846154 0  0.5384615384615384 0.6153846153846154 0  0.6153846153846154 0.6153846153846154 0  0.6923076923076923 0.6153846153846154 0  0.7692307692307693 0.6153846153846154 0  0.8461538461538461 0.6153846153846154 0  0.9230769230769231 0.6153846153846154 0  1 0.6153846153846154 0  0 0.6923076923076923 0  0.07692307692307693 0.6923076923076923 0  0.1538461538461539 0.6923076923076923 0  0.2307692307692308 0.6923076923076923 0  0.3076923076923077 0.6923076923076923 0  0.3846153846153846 0.6923076923076923 0  0.4615384615384616 0.6923076923076923 0  0.5384615384615384 0.6923076923076923 0  0.6153846153846154 0.6923076923076923 0  0.6923076923076923 0.6923076923076923 0  0.7692307692307693 0.6923076923076923 0  0.8461538461538461 0.6923076923076923 0  0.9230769230769231 0.6923076923076923 0  1 0.6923076923076923 0  0 0.7692307692307693 0  0.07692307692307693 0.7692307692307693 0  0.1538461538461539 0.7692307692307693 0  0.2307692307692308 0.7692307692307693 0  0.3076923076923077 0.7692307692307693 0  0.3846153846153846 0.7692307692307693 0  0.4615384615384616 0.7692307692307693 0  0.5384615384615384 0.7692307692307693 0  0.6153846153846154 0.7692307692307693 0  0.6923076923076923 0.7692307692307693 0  0.7692307692307693 0.7692307692307693 0  0.8461538461538461 0.7692307692307693 0  0.9230769230769231 0.7692307692307693 0  1 0.7692307692307693 0  0 0.8461538461538461 0  0.07692307692307693 0.8461538461538461 0  0.1538461538461539 0.8461538461538461 0  0.2307692307692308 0.8461538461538461 0  0.3076923076923077 0.8461538461538461 0  0.3846153846153846 0.8461538461538461 0  0.4615384615384616 0.8461538461538461 0  0.5384615384615384 0.8461538461538461 0  0.6153846153846154 0.8461538461538461 0  0.6923076923076923 0.8461538461538461 0  0.7692307692307693 0.8461538461538461 0  0.8461538461538461 0.8461538461538461 0  0.9230769230769231 0.8461538461538461 0  1 0.8461538461538461 0  0 0.9230769230769231 0  0.07692307692307693 0.9230769230769231 0  0.1538461538461539 0.9230769230769231 0  0.2307692307692308 0.9230769230769231 0  0.3076923076923077 0.9230769230769231 0  0.3846153846153846 0.9230769230769231 0  0.4615384615384616 0.9230769230769231 0  0.5384615384615384 0.9230769230769231 0  0.6153846153846154 0.9230769230769231 0  0.6923076923076923 0.9230769230769231 0  0.7692307692307693 0.9230769230769231 0  0.8461538461538461 0.9230769230769231 0  0.9230769230769231 0.9230769230769231 0  1 0.9230769230769231 0  0 1 0  0.07692307692307693 1 0  0.1538461538461539 1 0  0.2307692307692308 1 0  0.3076923076923077 1 0  0.3846153846153846 1 0  0.4615384615384616 1 0  0.5384615384615384 1 0  0.6153846153846154 1 0  0.6923076923076923 1 0  0.7692307692307693 1 0  0.8461538461538461 1 0  0.9230769230769231 1 0  1 1 0  0.5 0.3461538461538461 0  0.4230769230769231 0.4230769230769231 0  0.5 0.3846153846153846 0  0.4615384615384616 0.4230769230769231 0  0.5 0.4230769230769231 0  0.5384615384615384 0.4230769230769231 0  0.5769230769230769 0.4230769230769231 0  0.3461538461538461 0.5 0  0.4230769230769231 0.4615384615384616 0  0.3846153846153846 0.5 0  0.4230769230769231 0.5 0  0.5 0.4615384615384616 0  0.4615384615384616 0.5 0  0.5 0.5 0  0.5769230769230769 0.4615384615384616 0  0.5384615384615384 0.5 0  0.5769230769230769 0.5 0  0.6153846153846154 0.5 0  0.6538461538461539 0.5 0  0.4230769230769231 0.5384615384615384 0  0.4230769230769231 0.5769230769230769 0  0.5 0.5384615384615384 0  0.4615384615384616 0.5769230769230769 0  0.5 0.5769230769230769 0  0.5769230769230769 0.5384615384615384 0  0.5384615384615384 0.5769230769230769 0  0.5769230769230769 0.5769230769230769 0  0.5 0.6153846153846154 0  0.5 0.6538461538461539 0  </DataArray>
</Points>
<Cells>
<DataArray  type="UInt32"  Name="connectivity"  format="ascii">0 1 15  0 14 15  1 2 16  1 15 16  2 3 17  2 16 17  3 4 18  3 17 18  4 5 19  4 18 19  5 6 20  5 19 20  6 7 21  6 20 21  7 8 22  7 21 22  8 9 23  8 22 23  9 10 24  9 23 24  10 11 25  10 24 25  11 12 26  11 25 26  12 13 27  12 26 27  14 15 29  14 28 29  15 16 30  15 29 30  16 17 31  16 30 31  17 18 32  17 31 32  18 19 33  18 32 33  19 20 34  19 33 34  20 21 35  20 34 35  21 22 36  21 35 36  22 23 37  22 36 37  23 24 38  23 37 38  24 25 39  24 38 39  25 26 40  25 39 40  26 27 41  26 40 41  28 29 43  28 42 43  29 30 44  29 43 44  30 31 45  30 44 45  31 32 46  31 45 46  32 33 47  32 46 47  33 34 48  33 47 48  34 35 49  34 48 49  35 36 50  35 49 50  36 37 51  36 50 51  37 38 52  37 51 52  38 39 53  38 52 53  39 40 54  39 53 54  40 41 55  40 54 55  42 43 57  42 56 57  43 44 58  43 57 58  44 45 59  44 58 59  45 46 60  45 59 60  46 47 61  46 60 61  47 48 62  47 61 62  48 49 63  48 62 63  49 50 64  49 63 64  50 51 65  50 64 65  51 52 66  51 65 66  52 53 67  52 66 67  53 54 68  53 67 68  54 55 69  54 68 69  56 57 71  56 70 71  57 58 72  57 71 72  58 59 73  58 72 73  59 60 74  59 73 74  60 61 75  60 74 75  61 62 76  61 75 76  62 63 196  63 77 196  62 76 196  76 196 198  77 196 198  63 64 78  63 77 78  64 65 79  64 78 79  65 66 80  65 79 80  66 67 81  66 80 81  67 68 82  67 81 82  68 69 83  68 82 83  70 71 85  70 84 85  71 72 86  71 85 86  72 73 87  72 86 87  73 74 88  73 87 88  74 75 89  74 88 89  75 76 197  76 197 199  90 197 199  75 89 197  89 197 204  90 197 204  77 198 200  76 198 200  77 200 201  91 200 201  90 199 200  76 199 200  90 200 207  91 200 207  77 78 202  78 92 202  91 201 202  77 201 202  91 202 210  92 202 210  78 79 93  78 92 93  79 80 94  79 93 94  80 81 95  80 94 95  81 82 96  81 95 96  82 83 97  82 96 97  84 85 99  84 98 99  85 86 100  85 99 100  86 87 101  86 100 101  87 88 102  87 101 102  88 89 203  89 203 205  103 203 205  88 102 203  102 103 203  90 204 206  89 204 206  90 206 208  104 206 208  103 205 206  89 205 206  103 206 215  104 206 215  91 207 209  90 207 209  91 209 211  105 209 211  104 208 209  90 208 209  104 209 217  105 209 217  92 210 212  91 210 212  92 212 213  106 212 213  105 211 212  91 211 212  105 212 220  106 212 220  92 93 214  93 107 214  106 213 214  92 213 214  106 107 214  93 94 108  93 107 108  94 95 109  94 108 109  95 96 110  95 109 110  96 97 111  96 110 111  98 99 113  98 112 113  99 100 114  99 113 114  100 101 115  100 114 115  101 102 116  101 115 116  102 103 117  102 116 117  104 215 216  103 215 216  104 216 218  118 216 218  103 117 216  117 118 216  105 217 219  104 217 219  105 219 221  119 219 221  118 218 219  104 218 219  118 219 223  119 219 223  106 220 222  105 220 222  106 120 222  119 221 222  105 221 222  119 120 222  106 107 121  106 120 121  107 108 122  107 121 122  108 109 123  108 122 123  109 110 124  109 123 124  110 111 125  110 124 125  112 113 127  112 126 127  113 114 128  113 127 128  114 115 129  114 128 129  115 116 130  115 129 130  116 117 131  116 130 131  117 118 132  117 131 132  119 223 224  118 223 224  119 133 224  118 132 224  132 133 224  119 120 134  119 133 134  120 121 135  120 134 135  121 122 136  121 135 136  122 123 137  122 136 137  123 124 138  123 137 138  124 125 139  124 138 139  126 127 141  126 140 141  127 128 142  127 141 142  128 129 143  128 142 143  129 130 144  129 143 144  130 131 145  130 144 145  131 132 146  131 145 146  132 133 147  132 146 147  133 134 148  133 147 148  134 135 149  134 148 149  135 136 150  135 149 150  136 137 151  136 150 151  137 138 152  137 151 152  138 139 153  138 152 153  140 141 155  140 154 155  141 142 156  141 155 156  142 143 157  142 156 157  143 144 158  143 157 158  144 145 159  144 158 159  145 146 160  145 159 160  146 147 161  146 160 161  147 148 162  147 161 162  148 149 163  148 162 163  149 150 164  149 163 164  150 151 165  150 164 165  151 152 166  151 165 166  152 153 167  152 166 167  154 155 169  154 168 169  155 156 170  155 169 170  156 157 171  156 170 171  157 158 172  157 171 172  158 159 173  158 172 173  159 160 174  159 173 174  160 161 175  160 174 175  161 162 176  161 175 176  162 163 177  162 176 177  163 164 178  163 177 178  164 165 179  164 178 179  165 166 180  165 179 180  166 167 181  166 180 181  168 169 183  168 182 183  169 170 184  169 183 184  170 171 185  170 184 185  171 172 186  171 185 186  172 173 187  172 186 187  173 174 188  173 187 188  174 175 189  174 188 189  175 176 190  175 189 190  176 177 191  176 190 191  177 178 192  177 191 192  178 179 193  178 192 193  179 180 194  179 193 194  180 181 195  180 194 195  </DataArray>
<DataArray  type="UInt32"  Name="offsets"  format="ascii">3 6 9 12 15 18 21 24 27 30 33 36 39 42 45 48 51 54 57 60 63 66 69 72 75 78 81 84 87 90 93 96 99 102 105 108 111 114 117 120 123 126 129 132 135 138 141 144 147 150 153 156 159 162 165 168 171 174 177 180 183 186 189 192 195 198 201 204 207 210 213 216 219 222 225 228 231 234 237 240 243 246 249 252 255 258 261 264 267 270 273 276 279 282 285 288 291 294 297 300 303 306 309 312 315 318 321 324 327 330 333 336 339 342 345 348 351 354 357 360 363 366 369 372 375 378 381 384 387 390 393 396 399 402 405 408 411 414 417 420 423 426 429 432 435 438 441 444 447 450 453 456 459 462 465 468 471 474 477 480 483 486 489 492 495 498 501 504 507 510 513 516 519 522 525 528 531 534 537 540 543 546 549 552 555 558 561 564 567 570 573 576 579 582 585 588 591 594 597 600 603 606 609 612 615 618 621 624 627 630 633 636 639 642 645 648 651 654 657 660 663 666 669 672 675 678 681 684 687 690 693 696 699 702 705 708 711 714 717 720 723 726 729 732 735 738 741 744 747 750 753 756 759 762 765 768 771 774 777 780 783 786 789 792 795 798 801 804 807 810 813 816 819 822 825 828 831 834 837 840 843 846 849 852 855 858 861 864 867 870 873 876 879 882 885 888 891 894 897 900 903 906 909 912 915 918 921 924 927 930 933 936 939 942 945 948 951 954 957 960 963 966 969 972 975 978 981 984 987 990 993 996 999 1002 1005 1008 1011 1014 1017 1020 1023 1026 1029 1032 1035 1038 1041 1044 1047 1050 1053 1056 1059 1062 1065 1068 1071 1074 1077 1080 1083 1086 1089 1092 1095 1098 1101 1104 1107 1110 1113 1116 1119 1122 1125 1128 1131 1134 1137 1140 1143 1146 1149 1152 1155 1158 1161 1164 1167 1170 1173 1176 1179 1182 1185 1188 </DataArray>
<DataArray  type="UInt8"  Name="types"  format="ascii">5 5 5 5 5 5 5 5 5 5 5 5 5 5 5 5 5 5 5 5 5 5 5 5 5 5 5 5 5 5 5 5 5 5 5 5 5 5 5 5 5 5 5 5 5 5 5 5 5 5 5 5 5 5 5 5 5 5 5 5 5 5 5 5 5 5 5 5 5 5 5 5 5 5 5 5 5 5 5 5 5 5 5 5 5 5 5 5 5 5 5 5 5 5 5 5 5 5 5 5 5 5 5 5 5 5 5 5 5 5 5 5 5 5 5 5 5 5 5 5 5 5 5 5 5 5 5 5 5 5 5 5 5 5 5 5 5 5 5 5 5 5 5 5 5 5 5 5 5 5 5 5 5 5 5 5 5 5 5 5 5 5 5 5 5 5 5 5 5 5 5 5 5 5 5 5 5 5 5 5 5 5 5 5 5 5 5 5 5 5 5 5 5 5 5 5 5 5 5 5 5 5 5 5 5 5 5 5 5 5 5 5 5 5 5 5 5 5 5 5 5 5 5 5 5 5 5 5 5 5 5 5 5 5 5 5 5 5 5 5 5 5 5 5 5 5 5 5 5 5 5 5 5 5 5 5 5 5 5 5 5 5 5 5 5 5 5 5 5 5 5 5 5 5 5 5 5 5 5 5 5 5 5 5 5 5 5 5 5 5 5 5 5 5 5 5 5 5 5 5 5 5 5 5 5 5 5 5 5 5 5 5 5 5 5 5 5 5 5 5 5 5 5 5 5 5 5 5 5 5 5 5 5 5 5 5 5 5 5 5 5 5 5 5 5 5 5 5 5 5 5 5 5 5 5 5 5 5 5 5 5 5 5 5 5 5 5 5 5 5 5 5 5 5 5 5 5 5 5 5 5 5 5 5 5 5 5 5 5 5 5 5 5 5 5 5 </DataArray>
</Cells>
<PointData  Scalars="f_29"> 
<DataArray  type="Float64"  Name="f_29"  format="ascii">3.9269908169872414e+00  4.0090944594409450e+00  4.1059261715447608e+00  4.2176682021711187e+00  4.3445905003215612e+00  4.4851333902733250e+00  4.6353365232762433e+00  4.7890581694165606e+00  4.9392578667051490e+00  5.0797952673025586e+00  5.2067121055427021e+00  5.3184506440489043e+00  5.4152823485413801e+00  5.4975860730374020e+00  3.8448871745335378e+00  3.9269908169872414e+00  4.0266568048160991e+00  4.1456586215214672e+00  4.2857630625673178e+00  4.4461429039031337e+00  4.6217411905286241e+00  4.8030651502277948e+00  4.9786577558819944e+00  5.1390314343016570e+00  5.2791291890277963e+00  5.3981247079158479e+00  5.4977853831508083e+00  5.5798859316209626e+00  3.7480554624297220e+00  3.8273248291583832e+00  3.9269908169872414e+00  4.0513473142052758e+00  4.2053007363828518e+00  4.3906643040157602e+00  4.6017731507489730e+00  4.8230985140998319e+00  5.0341886341774611e+00  5.2195188148170883e+00  5.3734485869186681e+00  5.4977965162575337e+00  5.5974560883201017e+00  5.6767185383775516e+00  3.6363134318033645e+00  3.7083230124530155e+00  3.8026343197692074e+00  3.9269908169872414e+00  4.0921487691300280e+00  4.3075225810230418e+00  4.5705409078798844e+00  4.8543591005807167e+00  5.1173657839952833e+00  5.3327113643052115e+00  5.4978238626086693e+00  5.6221554211178075e+00  5.7164599407430767e+00  5.7884605606438946e+00  3.5093911336529211e+00  3.5682185714071650e+00  3.6486808975916314e+00  3.7618328648444548e+00  3.9269908169872414e+00  4.1719810774486827e+00  4.5150681795402345e+00  4.9097846764714976e+00  5.2528867523140343e+00  5.4978692543809071e+00  5.6630016764268323e+00  5.7761094122557388e+00  5.8565642795553154e+00  5.9153819484496273e+00  3.3688482437011578e+00  3.4078387300713504e+00  3.4633173299587230e+00  3.5464590529514410e+00  3.6820005565257996e+00  3.9269908169872414e+00  4.3905865036853697e+00  5.0342116756021005e+00  5.4977861117106963e+00  5.7427274112972411e+00  5.8782393301675286e+00  5.9613219552987555e+00  6.0168016628363681e+00  6.0558932333169881e+00  3.2186451106982399e+00  3.2322404434458583e+00  3.2522084832255103e+00  3.2834407260945988e+00  3.3389134544342478e+00  3.4633951302891126e+00  3.9269905707752888e+00  5.4977750503227600e+00  5.9613488906071490e+00  6.0805093317246470e+00  6.1261541376865152e+00  6.1486739328946189e+00  6.1585638652640009e+00  6.1850339435159984e+00  3.0649234645579222e+00  3.0509164837466884e+00  3.0308831198746509e+00  2.9996225333937661e+00  2.9441969575029852e+00  2.8197699583723828e+00  2.3561885757339520e+00  7.8542125173230415e-01  3.2187373056197160e-01  1.9745556399619810e-01  1.4203893169047865e-01  1.1080377996429369e-01  9.0796005541652000e-02  7.6722841852619655e-02  2.9147237672693347e+00  2.8753238780924883e+00  2.8197929997970212e+00  2.7366158499791995e+00  2.6010948816604480e+00  2.3561404962356773e+00  1.8925776738968254e+00  1.2489706304514840e+00  7.8539816339744828e-01  5.4044250181090336e-01  4.0492374873789921e-01  3.2178356383642076e-01  2.6625988057577882e-01  2.2685890815529974e-01  2.7741863666719242e+00  2.7149501996728262e+00  2.6344628191573944e+00  2.5212702696692713e+00  2.3561123795935757e+00  2.1111582425803421e+00  1.7680862181065935e+00  1.3734170914770665e+00  1.0303538249839927e+00  7.8539816339744828e-01  6.2026154177022119e-01  5.0711420739602431e-01  4.2663339433538738e-01  3.6739717883759182e-01  2.6472695284317806e+00  2.5748524449466874e+00  2.4805330470558151e+00  2.3561577713658139e+00  2.1909799575476510e+00  1.9756191324226378e+00  1.7126342285006932e+00  1.4288489356076139e+00  1.1658725780569972e+00  9.5053478502467537e-01  7.8539816339744828e-01  6.6104525949849746e-01  5.6673283779873662e-01  4.9431579112883817e-01  2.5355309899255789e+00  2.4558569260586345e+00  2.3561851177169491e+00  2.2318262128566748e+00  2.0778722217187431e+00  1.8925106092836075e+00  1.6814114231820247e+00  1.4600987022733878e+00  1.2490127629584755e+00  1.0636821193988721e+00  9.0975106729639910e-01  7.8539816339744828e-01  6.8573175278732612e-01  6.0605666145743975e-01  2.4386992854331022e+00  2.3561962508236749e+00  2.2565255456543807e+00  2.1375216932314056e+00  1.9974173544191669e+00  1.8370402146971390e+00  1.6614454285462545e+00  1.4801257392363174e+00  1.3045364462191174e+00  1.1441629324595091e+00  1.0040634889961599e+00  8.8506457400756999e-01  7.8539816339744828e-01  7.0289142305483343e-01  2.3563955609370808e+00  2.2740957023535207e+00  2.1772630955969308e+00  2.0655210733305891e+00  1.9385996855248557e+00  1.7980584576666381e+00  1.6478571800939084e+00  1.4941368486058733e+00  1.3439374186395965e+00  1.2033991479573045e+00  1.0764805356660581e+00  9.6473966533745636e-01  8.6790490374006313e-01  7.8539816339744828e-01  4.7124010025699201e+00  3.9269908169874572e+00  4.7123935936932257e+00  4.2487374434351066e+00  4.7123947196715248e+00  5.1760462750048513e+00  5.4977996383557501e+00  3.1415806314045622e+00  3.6052441905397186e+00  3.1415880402812575e+00  3.1415869102512652e+00  4.7123253302755064e+00  3.1415915265473577e+00  3.1417100963707916e+00  5.8195237050371924e+00  6.2826417583179381e+00  6.2817244438707913e+00  6.2804231560049537e+00  6.2748111833626750e+00  2.6779353483764541e+00  2.3561819964700144e+00  1.5708589190558340e+00  2.0344445692684725e+00  1.5707901465197120e+00  4.6512430541895050e-01  1.1071416500074005e+00  7.8540489998601493e-01  1.5707918050937513e+00  1.5707842188158569e+00  </DataArray> 
</PointData> 
</Piece>
</UnstructuredGrid>
</VTKFile>