<?xml version="1.0"?>
<VTKFile type="UnstructuredGrid"  version="0.1"  >
<UnstructuredGrid>
<Piece  NumberOfPoints="25" NumberOfCells="36">
<Points>
<DataArray  type="Float64"  NumberOfComponents="3"  format="ascii">0 0 0  3.333333333333333 0 0  6.666666666666667 0 0  10 0 0  0 3.333333333333333 0  3.333333333333333 3.333333333333333 0  6.666666666666667 3.333333333333333 0  10 3.333333333333333 0  0 6.666666666666667 0  3.333333333333333 6.666666666666667 0  6.666666666666667 6.666666666666667 0  10 6.666666666666667 0  0 10 0  3.333333333333333 10 0  6.666666666666667 10 0  10 10 0  1.666666666666667 1.666666666666667 0  5 1.666666666666667 0  8.333333333333334 1.666666666666667 0  1.666666666666667 5 0  5 5 0  8.333333333333334 5 0  1.666666666666667 8.333333333333334 0  5 8.333333333333334 0  8.333333333333334 8.333333333333334 0  </DataArray>
</Points>
<Cells>
<DataArray  type="UInt32"  Name="connectivity"  format="ascii">0 1 16  0 4 16  1 5 16  4 5 16  1 2 17  1 5 17  2 6 17  5 6 17  2 3 18  2 6 18  3 7 18  6 7 18  4 5 19  4 8 19  5 9 19  8 9 19  5 6 20  5 9 20  6 10 20  9 10 20  6 7 21  6 10 21  7 11 21  10 11 21  8 9 22  8 12 22  9 13 22  12 13 22  9 10 23  9 13 23  10 14 23  13 14 23  10 11 24  10 14 24  11 15 24  14 15 24  </DataArray>
<DataArray  type="UInt32"  Name="offsets"  format="ascii">3 6 9 12 15 18 21 24 27 30 33 36 39 42 45 48 51 54 57 60 63 66 69 72 75 78 81 84 87 90 93 96 99 102 105 108 </DataArray>
<DataArray  type="UInt8"  Name="types"  format="ascii">5 5 5 5 5 5 5 5 5 5 5 5 5 5 5 5 5 5 5 5 5 5 5 5 5 5 5 5 5 5 5 5 5 5 5 5 </DataArray>
</Cells>
<PointData  Scalars="f_10"> 
<DataArray  type="Float64"  Name="f_10"  format="ascii">-4.1033286466144910e-03  -2.6280325876030042e-03  1.0108082889229671e-03  4.7114764043072023e-03  -3.7848726434283348e-03  3.2656294867731868e-02  1.2779364075739832e-01  8.6932394562581929e-03  -3.1857606443031232e-03  6.3193651108120016e-02  1.2475462968366473e-01  8.1794185350083076e-03  -3.7881107642893904e-03  -3.8476852195028576e-02  -2.2810440340798131e-04  4.4425846110824029e-03  1.4820379756609213e-03  2.7731678785736756e-02  8.2906099988254763e-03  9.5244318208748957e-03  5.0161503804444569e+00  4.3911685110294044e-02  2.2282276210252960e-03  6.5016815061797351e-02  7.2288042619188747e-03  </DataArray> 
</PointData> 
</Piece>
</UnstructuredGrid>
</VTKFile>