<?xml version="1.0"?>
<VTKFile type="UnstructuredGrid"  version="0.1"  >
<UnstructuredGrid>
<Piece  NumberOfPoints="25" NumberOfCells="36">
<Points>
<DataArray  type="Float64"  NumberOfComponents="3"  format="ascii">0 0 0  3.333333333333333 0 0  6.666666666666667 0 0  10 0 0  0 3.333333333333333 0  3.333333333333333 3.333333333333333 0  6.666666666666667 3.333333333333333 0  10 3.333333333333333 0  0 6.666666666666667 0  3.333333333333333 6.666666666666667 0  6.666666666666667 6.666666666666667 0  10 6.666666666666667 0  0 10 0  3.333333333333333 10 0  6.666666666666667 10 0  10 10 0  1.666666666666667 1.666666666666667 0  5 1.666666666666667 0  8.333333333333334 1.666666666666667 0  1.666666666666667 5 0  5 5 0  8.333333333333334 5 0  1.666666666666667 8.333333333333334 0  5 8.333333333333334 0  8.333333333333334 8.333333333333334 0  </DataArray>
</Points>
<Cells>
<DataArray  type="UInt32"  Name="connectivity"  format="ascii">0 1 16  0 4 16  1 5 16  4 5 16  1 2 17  1 5 17  2 6 17  5 6 17  2 3 18  2 6 18  3 7 18  6 7 18  4 5 19  4 8 19  5 9 19  8 9 19  5 6 20  5 9 20  6 10 20  9 10 20  6 7 21  6 10 21  7 11 21  10 11 21  8 9 22  8 12 22  9 13 22  12 13 22  9 10 23  9 13 23  10 14 23  13 14 23  10 11 24  10 14 24  11 15 24  14 15 24  </DataArray>
<DataArray  type="UInt32"  Name="offsets"  format="ascii">3 6 9 12 15 18 21 24 27 30 33 36 39 42 45 48 51 54 57 60 63 66 69 72 75 78 81 84 87 90 93 96 99 102 105 108 </DataArray>
<DataArray  type="UInt8"  Name="types"  format="ascii">5 5 5 5 5 5 5 5 5 5 5 5 5 5 5 5 5 5 5 5 5 5 5 5 5 5 5 5 5 5 5 5 5 5 5 5 </DataArray>
</Cells>
<PointData  Scalars="f_7"> 
<DataArray  type="Float64"  Name="f_7"  format="ascii">3.8256155212123572e-03  5.0956394190441083e-03  3.2943383592531706e-03  3.7881107642892767e-03  1.1532026470923561e-03  -2.2747597122875773e-02  -6.3874350645723874e-02  1.0873402710220733e-03  9.5208111615223629e-05  -9.4213043707307056e-02  -1.2561331769117512e-01  2.2810440340795951e-04  -4.7114764043072162e-03  -2.3540396888351838e-02  -8.1794185350083093e-03  -4.7182410700513256e-03  7.0707032869521810e-03  -2.7528593858796805e-03  6.3976262461297086e-03  -2.0345973650379743e-02  -4.6997251236779114e+00  -1.6776848741433946e-02  1.3036578079513280e-03  -6.0673734430166500e-02  1.5311853419529196e-03  </DataArray> 
</PointData> 
</Piece>
</UnstructuredGrid>
</VTKFile>