<?xml version="1.0"?>
<VTKFile type="UnstructuredGrid"  version="0.1"  >
<UnstructuredGrid>
<Piece  NumberOfPoints="25" NumberOfCells="36">
<Points>
<DataArray  type="Float64"  NumberOfComponents="3"  format="ascii">0 0 0  3.333333333333333 0 0  6.666666666666667 0 0  10 0 0  0 3.333333333333333 0  3.333333333333333 3.333333333333333 0  6.666666666666667 3.333333333333333 0  10 3.333333333333333 0  0 6.666666666666667 0  3.333333333333333 6.666666666666667 0  6.666666666666667 6.666666666666667 0  10 6.666666666666667 0  0 10 0  3.333333333333333 10 0  6.666666666666667 10 0  10 10 0  1.666666666666667 1.666666666666667 0  5 1.666666666666667 0  8.333333333333334 1.666666666666667 0  1.666666666666667 5 0  5 5 0  8.333333333333334 5 0  1.666666666666667 8.333333333333334 0  5 8.333333333333334 0  8.333333333333334 8.333333333333334 0  </DataArray>
</Points>
<Cells>
<DataArray  type="UInt32"  Name="connectivity"  format="ascii">0 1 16  0 4 16  1 5 16  4 5 16  1 2 17  1 5 17  2 6 17  5 6 17  2 3 18  2 6 18  3 7 18  6 7 18  4 5 19  4 8 19  5 9 19  8 9 19  5 6 20  5 9 20  6 10 20  9 10 20  6 7 21  6 10 21  7 11 21  10 11 21  8 9 22  8 12 22  9 13 22  12 13 22  9 10 23  9 13 23  10 14 23  13 14 23  10 11 24  10 14 24  11 15 24  14 15 24  </DataArray>
<DataArray  type="UInt32"  Name="offsets"  format="ascii">3 6 9 12 15 18 21 24 27 30 33 36 39 42 45 48 51 54 57 60 63 66 69 72 75 78 81 84 87 90 93 96 99 102 105 108 </DataArray>
<DataArray  type="UInt8"  Name="types"  format="ascii">5 5 5 5 5 5 5 5 5 5 5 5 5 5 5 5 5 5 5 5 5 5 5 5 5 5 5 5 5 5 5 5 5 5 5 5 </DataArray>
</Cells>
<PointData  Scalars="f_13"> 
<DataArray  type="Float64"  Name="f_13"  format="ascii">3.9273219267108677e+00  3.4614611130582822e+00  2.8147594485812184e+00  2.3558910878321986e+00  4.3932998133574008e+00  3.9477551852442376e+00  2.3408174406416129e+00  1.8898359775333200e+00  5.0396182929505571e+00  5.5575965817678528e+00  7.8471689979178683e-01  1.2434417614531001e+00  5.4980905461422847e+00  5.9993200047805937e+00  3.2735456534179624e-01  7.8506002091087923e-01  3.9345041263843248e+00  3.1409368391239618e+00  2.3491324938926263e+00  4.7249385521762575e+00  1.0398709741683672e+00  1.5553491729783990e+00  5.5045377861870142e+00  1.1997416861526768e-01  7.7828174562084695e-01  </DataArray> 
</PointData> 
</Piece>
</UnstructuredGrid>
</VTKFile>