<?xml version="1.0"?>
<VTKFile type="UnstructuredGrid"  version="0.1"  >
<UnstructuredGrid>
<Piece  NumberOfPoints="5101" NumberOfCells="10000">
<Points>
<DataArray  type="Float64"  NumberOfComponents="3"  format="ascii">0 0 0  0.2 0 0  0.4 0 0  0.6 0 0  0.8 0 0  1 0 0  1.2 0 0  1.4 0 0  1.6 0 0  1.8 0 0  2 0 0  2.2 0 0  2.4 0 0  2.6 0 0  2.8 0 0  3 0 0  3.2 0 0  3.4 0 0  3.6 0 0  3.8 0 0  4 0 0  4.2 0 0  4.4 0 0  4.6 0 0  4.8 0 0  5 0 0  5.2 0 0  5.4 0 0  5.6 0 0  5.8 0 0  6 0 0  6.2 0 0  6.4 0 0  6.6 0 0  6.8 0 0  7 0 0  7.2 0 0  7.4 0 0  7.6 0 0  7.8 0 0  8 0 0  8.199999999999999 0 0  8.4 0 0  8.6 0 0  8.800000000000001 0 0  9 0 0  9.199999999999999 0 0  9.4 0 0  9.6 0 0  9.800000000000001 0 0  10 0 0  0 0.2 0  0.2 0.2 0  0.4 0.2 0  0.6 0.2 0  0.8 0.2 0  1 0.2 0  1.2 0.2 0  1.4 0.2 0  1.6 0.2 0  1.8 0.2 0  2 0.2 0  2.2 0.2 0  2.4 0.2 0  2.6 0.2 0  2.8 0.2 0  3 0.2 0  3.2 0.2 0  3.4 0.2 0  3.6 0.2 0  3.8 0.2 0  4 0.2 0  4.2 0.2 0  4.4 0.2 0  4.6 0.2 0  4.8 0.2 0  5 0.2 0  5.2 0.2 0  5.4 0.2 0  5.6 0.2 0  5.8 0.2 0  6 0.2 0  6.2 0.2 0  6.4 0.2 0  6.6 0.2 0  6.8 0.2 0  7 0.2 0  7.2 0.2 0  7.4 0.2 0  7.6 0.2 0  7.8 0.2 0  8 0.2 0  8.199999999999999 0.2 0  8.4 0.2 0  8.6 0.2 0  8.800000000000001 0.2 0  9 0.2 0  9.199999999999999 0.2 0  9.4 0.2 0  9.6 0.2 0  9.800000000000001 0.2 0  10 0.2 0  0 0.4 0  0.2 0.4 0  0.4 0.4 0  0.6 0.4 0  0.8 0.4 0  1 0.4 0  1.2 0.4 0  1.4 0.4 0  1.6 0.4 0  1.8 0.4 0  2 0.4 0  2.2 0.4 0  2.4 0.4 0  2.6 0.4 0  2.8 0.4 0  3 0.4 0  3.2 0.4 0  3.4 0.4 0  3.6 0.4 0  3.8 0.4 0  4 0.4 0  4.2 0.4 0  4.4 0.4 0  4.6 0.4 0  4.8 0.4 0  5 0.4 0  5.2 0.4 0  5.4 0.4 0  5.6 0.4 0  5.8 0.4 0  6 0.4 0  6.2 0.4 0  6.4 0.4 0  6.6 0.4 0  6.8 0.4 0  7 0.4 0  7.2 0.4 0  7.4 0.4 0  7.6 0.4 0  7.8 0.4 0  8 0.4 0  8.199999999999999 0.4 0  8.4 0.4 0  8.6 0.4 0  8.800000000000001 0.4 0  9 0.4 0  9.199999999999999 0.4 0  9.4 0.4 0  9.6 0.4 0  9.800000000000001 0.4 0  10 0.4 0  0 0.6 0  0.2 0.6 0  0.4 0.6 0  0.6 0.6 0  0.8 0.6 0  1 0.6 0  1.2 0.6 0  1.4 0.6 0  1.6 0.6 0  1.8 0.6 0  2 0.6 0  2.2 0.6 0  2.4 0.6 0  2.6 0.6 0  2.8 0.6 0  3 0.6 0  3.2 0.6 0  3.4 0.6 0  3.6 0.6 0  3.8 0.6 0  4 0.6 0  4.2 0.6 0  4.4 0.6 0  4.6 0.6 0  4.8 0.6 0  5 0.6 0  5.2 0.6 0  5.4 0.6 0  5.6 0.6 0  5.8 0.6 0  6 0.6 0  6.2 0.6 0  6.4 0.6 0  6.6 0.6 0  6.8 0.6 0  7 0.6 0  7.2 0.6 0  7.4 0.6 0  7.6 0.6 0  7.8 0.6 0  8 0.6 0  8.199999999999999 0.6 0  8.4 0.6 0  8.6 0.6 0  8.800000000000001 0.6 0  9 0.6 0  9.199999999999999 0.6 0  9.4 0.6 0  9.6 0.6 0  9.800000000000001 0.6 0  10 0.6 0  0 0.8 0  0.2 0.8 0  0.4 0.8 0  0.6 0.8 0  0.8 0.8 0  1 0.8 0  1.2 0.8 0  1.4 0.8 0  1.6 0.8 0  1.8 0.8 0  2 0.8 0  2.2 0.8 0  2.4 0.8 0  2.6 0.8 0  2.8 0.8 0  3 0.8 0  3.2 0.8 0  3.4 0.8 0  3.6 0.8 0  3.8 0.8 0  4 0.8 0  4.2 0.8 0  4.4 0.8 0  4.6 0.8 0  4.8 0.8 0  5 0.8 0  5.2 0.8 0  5.4 0.8 0  5.6 0.8 0  5.8 0.8 0  6 0.8 0  6.2 0.8 0  6.4 0.8 0  6.6 0.8 0  6.8 0.8 0  7 0.8 0  7.2 0.8 0  7.4 0.8 0  7.6 0.8 0  7.8 0.8 0  8 0.8 0  8.199999999999999 0.8 0  8.4 0.8 0  8.6 0.8 0  8.800000000000001 0.8 0  9 0.8 0  9.199999999999999 0.8 0  9.4 0.8 0  9.6 0.8 0  9.800000000000001 0.8 0  10 0.8 0  0 1 0  0.2 1 0  0.4 1 0  0.6 1 0  0.8 1 0  1 1 0  1.2 1 0  1.4 1 0  1.6 1 0  1.8 1 0  2 1 0  2.2 1 0  2.4 1 0  2.6 1 0  2.8 1 0  3 1 0  3.2 1 0  3.4 1 0  3.6 1 0  3.8 1 0  4 1 0  4.2 1 0  4.4 1 0  4.6 1 0  4.8 1 0  5 1 0  5.2 1 0  5.4 1 0  5.6 1 0  5.8 1 0  6 1 0  6.2 1 0  6.4 1 0  6.6 1 0  6.8 1 0  7 1 0  7.2 1 0  7.4 1 0  7.6 1 0  7.8 1 0  8 1 0  8.199999999999999 1 0  8.4 1 0  8.6 1 0  8.800000000000001 1 0  9 1 0  9.199999999999999 1 0  9.4 1 0  9.6 1 0  9.800000000000001 1 0  10 1 0  0 1.2 0  0.2 1.2 0  0.4 1.2 0  0.6 1.2 0  0.8 1.2 0  1 1.2 0  1.2 1.2 0  1.4 1.2 0  1.6 1.2 0  1.8 1.2 0  2 1.2 0  2.2 1.2 0  2.4 1.2 0  2.6 1.2 0  2.8 1.2 0  3 1.2 0  3.2 1.2 0  3.4 1.2 0  3.6 1.2 0  3.8 1.2 0  4 1.2 0  4.2 1.2 0  4.4 1.2 0  4.6 1.2 0  4.8 1.2 0  5 1.2 0  5.2 1.2 0  5.4 1.2 0  5.6 1.2 0  5.8 1.2 0  6 1.2 0  6.2 1.2 0  6.4 1.2 0  6.6 1.2 0  6.8 1.2 0  7 1.2 0  7.2 1.2 0  7.4 1.2 0  7.6 1.2 0  7.8 1.2 0  8 1.2 0  8.199999999999999 1.2 0  8.4 1.2 0  8.6 1.2 0  8.800000000000001 1.2 0  9 1.2 0  9.199999999999999 1.2 0  9.4 1.2 0  9.6 1.2 0  9.800000000000001 1.2 0  10 1.2 0  0 1.4 0  0.2 1.4 0  0.4 1.4 0  0.6 1.4 0  0.8 1.4 0  1 1.4 0  1.2 1.4 0  1.4 1.4 0  1.6 1.4 0  1.8 1.4 0  2 1.4 0  2.2 1.4 0  2.4 1.4 0  2.6 1.4 0  2.8 1.4 0  3 1.4 0  3.2 1.4 0  3.4 1.4 0  3.6 1.4 0  3.8 1.4 0  4 1.4 0  4.2 1.4 0  4.4 1.4 0  4.6 1.4 0  4.8 1.4 0  5 1.4 0  5.2 1.4 0  5.4 1.4 0  5.6 1.4 0  5.8 1.4 0  6 1.4 0  6.2 1.4 0  6.4 1.4 0  6.6 1.4 0  6.8 1.4 0  7 1.4 0  7.2 1.4 0  7.4 1.4 0  7.6 1.4 0  7.8 1.4 0  8 1.4 0  8.199999999999999 1.4 0  8.4 1.4 0  8.6 1.4 0  8.800000000000001 1.4 0  9 1.4 0  9.199999999999999 1.4 0  9.4 1.4 0  9.6 1.4 0  9.800000000000001 1.4 0  10 1.4 0  0 1.6 0  0.2 1.6 0  0.4 1.6 0  0.6 1.6 0  0.8 1.6 0  1 1.6 0  1.2 1.6 0  1.4 1.6 0  1.6 1.6 0  1.8 1.6 0  2 1.6 0  2.2 1.6 0  2.4 1.6 0  2.6 1.6 0  2.8 1.6 0  3 1.6 0  3.2 1.6 0  3.4 1.6 0  3.6 1.6 0  3.8 1.6 0  4 1.6 0  4.2 1.6 0  4.4 1.6 0  4.6 1.6 0  4.8 1.6 0  5 1.6 0  5.2 1.6 0  5.4 1.6 0  5.6 1.6 0  5.8 1.6 0  6 1.6 0  6.2 1.6 0  6.4 1.6 0  6.6 1.6 0  6.8 1.6 0  7 1.6 0  7.2 1.6 0  7.4 1.6 0  7.6 1.6 0  7.8 1.6 0  8 1.6 0  8.199999999999999 1.6 0  8.4 1.6 0  8.6 1.6 0  8.800000000000001 1.6 0  9 1.6 0  9.199999999999999 1.6 0  9.4 1.6 0  9.6 1.6 0  9.800000000000001 1.6 0  10 1.6 0  0 1.8 0  0.2 1.8 0  0.4 1.8 0  0.6 1.8 0  0.8 1.8 0  1 1.8 0  1.2 1.8 0  1.4 1.8 0  1.6 1.8 0  1.8 1.8 0  2 1.8 0  2.2 1.8 0  2.4 1.8 0  2.6 1.8 0  2.8 1.8 0  3 1.8 0  3.2 1.8 0  3.4 1.8 0  3.6 1.8 0  3.8 1.8 0  4 1.8 0  4.2 1.8 0  4.4 1.8 0  4.6 1.8 0  4.8 1.8 0  5 1.8 0  5.2 1.8 0  5.4 1.8 0  5.6 1.8 0  5.8 1.8 0  6 1.8 0  6.2 1.8 0  6.4 1.8 0  6.6 1.8 0  6.8 1.8 0  7 1.8 0  7.2 1.8 0  7.4 1.8 0  7.6 1.8 0  7.8 1.8 0  8 1.8 0  8.199999999999999 1.8 0  8.4 1.8 0  8.6 1.8 0  8.800000000000001 1.8 0  9 1.8 0  9.199999999999999 1.8 0  9.4 1.8 0  9.6 1.8 0  9.800000000000001 1.8 0  10 1.8 0  0 2 0  0.2 2 0  0.4 2 0  0.6 2 0  0.8 2 0  1 2 0  1.2 2 0  1.4 2 0  1.6 2 0  1.8 2 0  2 2 0  2.2 2 0  2.4 2 0  2.6 2 0  2.8 2 0  3 2 0  3.2 2 0  3.4 2 0  3.6 2 0  3.8 2 0  4 2 0  4.2 2 0  4.4 2 0  4.6 2 0  4.8 2 0  5 2 0  5.2 2 0  5.4 2 0  5.6 2 0  5.8 2 0  6 2 0  6.2 2 0  6.4 2 0  6.6 2 0  6.8 2 0  7 2 0  7.2 2 0  7.4 2 0  7.6 2 0  7.8 2 0  8 2 0  8.199999999999999 2 0  8.4 2 0  8.6 2 0  8.800000000000001 2 0  9 2 0  9.199999999999999 2 0  9.4 2 0  9.6 2 0  9.800000000000001 2 0  10 2 0  0 2.2 0  0.2 2.2 0  0.4 2.2 0  0.6 2.2 0  0.8 2.2 0  1 2.2 0  1.2 2.2 0  1.4 2.2 0  1.6 2.2 0  1.8 2.2 0  2 2.2 0  2.2 2.2 0  2.4 2.2 0  2.6 2.2 0  2.8 2.2 0  3 2.2 0  3.2 2.2 0  3.4 2.2 0  3.6 2.2 0  3.8 2.2 0  4 2.2 0  4.2 2.2 0  4.4 2.2 0  4.6 2.2 0  4.8 2.2 0  5 2.2 0  5.2 2.2 0  5.4 2.2 0  5.6 2.2 0  5.8 2.2 0  6 2.2 0  6.2 2.2 0  6.4 2.2 0  6.6 2.2 0  6.8 2.2 0  7 2.2 0  7.2 2.2 0  7.4 2.2 0  7.6 2.2 0  7.8 2.2 0  8 2.2 0  8.199999999999999 2.2 0  8.4 2.2 0  8.6 2.2 0  8.800000000000001 2.2 0  9 2.2 0  9.199999999999999 2.2 0  9.4 2.2 0  9.6 2.2 0  9.800000000000001 2.2 0  10 2.2 0  0 2.4 0  0.2 2.4 0  0.4 2.4 0  0.6 2.4 0  0.8 2.4 0  1 2.4 0  1.2 2.4 0  1.4 2.4 0  1.6 2.4 0  1.8 2.4 0  2 2.4 0  2.2 2.4 0  2.4 2.4 0  2.6 2.4 0  2.8 2.4 0  3 2.4 0  3.2 2.4 0  3.4 2.4 0  3.6 2.4 0  3.8 2.4 0  4 2.4 0  4.2 2.4 0  4.4 2.4 0  4.6 2.4 0  4.8 2.4 0  5 2.4 0  5.2 2.4 0  5.4 2.4 0  5.6 2.4 0  5.8 2.4 0  6 2.4 0  6.2 2.4 0  6.4 2.4 0  6.6 2.4 0  6.8 2.4 0  7 2.4 0  7.2 2.4 0  7.4 2.4 0  7.6 2.4 0  7.8 2.4 0  8 2.4 0  8.199999999999999 2.4 0  8.4 2.4 0  8.6 2.4 0  8.800000000000001 2.4 0  9 2.4 0  9.199999999999999 2.4 0  9.4 2.4 0  9.6 2.4 0  9.800000000000001 2.4 0  10 2.4 0  0 2.6 0  0.2 2.6 0  0.4 2.6 0  0.6 2.6 0  0.8 2.6 0  1 2.6 0  1.2 2.6 0  1.4 2.6 0  1.6 2.6 0  1.8 2.6 0  2 2.6 0  2.2 2.6 0  2.4 2.6 0  2.6 2.6 0  2.8 2.6 0  3 2.6 0  3.2 2.6 0  3.4 2.6 0  3.6 2.6 0  3.8 2.6 0  4 2.6 0  4.2 2.6 0  4.4 2.6 0  4.6 2.6 0  4.8 2.6 0  5 2.6 0  5.2 2.6 0  5.4 2.6 0  5.6 2.6 0  5.8 2.6 0  6 2.6 0  6.2 2.6 0  6.4 2.6 0  6.6 2.6 0  6.8 2.6 0  7 2.6 0  7.2 2.6 0  7.4 2.6 0  7.6 2.6 0  7.8 2.6 0  8 2.6 0  8.199999999999999 2.6 0  8.4 2.6 0  8.6 2.6 0  8.800000000000001 2.6 0  9 2.6 0  9.199999999999999 2.6 0  9.4 2.6 0  9.6 2.6 0  9.800000000000001 2.6 0  10 2.6 0  0 2.8 0  0.2 2.8 0  0.4 2.8 0  0.6 2.8 0  0.8 2.8 0  1 2.8 0  1.2 2.8 0  1.4 2.8 0  1.6 2.8 0  1.8 2.8 0  2 2.8 0  2.2 2.8 0  2.4 2.8 0  2.6 2.8 0  2.8 2.8 0  3 2.8 0  3.2 2.8 0  3.4 2.8 0  3.6 2.8 0  3.8 2.8 0  4 2.8 0  4.2 2.8 0  4.4 2.8 0  4.6 2.8 0  4.8 2.8 0  5 2.8 0  5.2 2.8 0  5.4 2.8 0  5.6 2.8 0  5.8 2.8 0  6 2.8 0  6.2 2.8 0  6.4 2.8 0  6.6 2.8 0  6.8 2.8 0  7 2.8 0  7.2 2.8 0  7.4 2.8 0  7.6 2.8 0  7.8 2.8 0  8 2.8 0  8.199999999999999 2.8 0  8.4 2.8 0  8.6 2.8 0  8.800000000000001 2.8 0  9 2.8 0  9.199999999999999 2.8 0  9.4 2.8 0  9.6 2.8 0  9.800000000000001 2.8 0  10 2.8 0  0 3 0  0.2 3 0  0.4 3 0  0.6 3 0  0.8 3 0  1 3 0  1.2 3 0  1.4 3 0  1.6 3 0  1.8 3 0  2 3 0  2.2 3 0  2.4 3 0  2.6 3 0  2.8 3 0  3 3 0  3.2 3 0  3.4 3 0  3.6 3 0  3.8 3 0  4 3 0  4.2 3 0  4.4 3 0  4.6 3 0  4.8 3 0  5 3 0  5.2 3 0  5.4 3 0  5.6 3 0  5.8 3 0  6 3 0  6.2 3 0  6.4 3 0  6.6 3 0  6.8 3 0  7 3 0  7.2 3 0  7.4 3 0  7.6 3 0  7.8 3 0  8 3 0  8.199999999999999 3 0  8.4 3 0  8.6 3 0  8.800000000000001 3 0  9 3 0  9.199999999999999 3 0  9.4 3 0  9.6 3 0  9.800000000000001 3 0  10 3 0  0 3.2 0  0.2 3.2 0  0.4 3.2 0  0.6 3.2 0  0.8 3.2 0  1 3.2 0  1.2 3.2 0  1.4 3.2 0  1.6 3.2 0  1.8 3.2 0  2 3.2 0  2.2 3.2 0  2.4 3.2 0  2.6 3.2 0  2.8 3.2 0  3 3.2 0  3.2 3.2 0  3.4 3.2 0  3.6 3.2 0  3.8 3.2 0  4 3.2 0  4.2 3.2 0  4.4 3.2 0  4.6 3.2 0  4.8 3.2 0  5 3.2 0  5.2 3.2 0  5.4 3.2 0  5.6 3.2 0  5.8 3.2 0  6 3.2 0  6.2 3.2 0  6.4 3.2 0  6.6 3.2 0  6.8 3.2 0  7 3.2 0  7.2 3.2 0  7.4 3.2 0  7.6 3.2 0  7.8 3.2 0  8 3.2 0  8.199999999999999 3.2 0  8.4 3.2 0  8.6 3.2 0  8.800000000000001 3.2 0  9 3.2 0  9.199999999999999 3.2 0  9.4 3.2 0  9.6 3.2 0  9.800000000000001 3.2 0  10 3.2 0  0 3.4 0  0.2 3.4 0  0.4 3.4 0  0.6 3.4 0  0.8 3.4 0  1 
[...]
<PointData  Scalars="f_13"> 
<DataArray  type="Float64"  Name="f_13"  format="ascii">9.7485438156768411e-01  9.6400976704331620e-01  9.7405385355427132e-01  9.7431641156007209e-01  9.7843345922896474e-01  9.8260401630518368e-01  7.6611352756510842e-01  9.4828788947215659e-01  9.7344046531241146e-01  9.8670307549817782e-01  5.5280536092394564e-03  6.2687141582819450e+00  6.2585946204175658e+00  1.9157087062367680e-02  6.2779446689756435e+00  3.0481970819686975e-02  5.5666472389383710e+00  5.7921977211223776e+00  5.8310494004063989e+00  5.7737501746650448e+00  5.9893282746706236e+00  6.2737583164874442e+00  6.2831031535629025e+00  1.6347149132394024e-04  6.2768719226909848e+00  6.1793646310617314e+00  5.5080503325578123e+00  1.1300737850625750e-02  6.2767553527727031e+00  6.0775949411203776e+00  5.5203161973362631e+00  6.2748103870444094e+00  6.2628365615856447e+00  6.1693606540671126e+00  5.5206337987917147e+00  1.2666801049904899e-01  3.9143766446254388e-03  5.6366514223553876e+00  1.9518561706421949e-02  6.5386898920565262e-02  6.0763127953138154e+00  1.9689742961909212e-01  3.5904756979775912e-03  3.3887207481910040e-03  1.8595601343608811e-01  3.0134261127101520e-03  1.7467500262150584e-01  1.3710221846040523e-03  5.3971262536143764e-03  5.6635217532866307e+00  1.1103072705567676e-02  6.2678680704677241e+00  5.4947252186761872e+00  5.5234132500691331e+00  5.4649413788624859e+00  5.5900447320424425e+00  5.1806282068618312e+00  9.4114008742526345e-01  9.5088679743646742e-01  9.4415056482962068e-01  9.6038393068533201e-01  1.0715649106648777e-02  8.8954726836317410e-01  1.2966425365810461e+00  4.4561712505200757e-01  4.0431316367925618e-01  5.4808361860120836e-01  4.6389336942177586e+00  5.1620084933695889e+00  4.8306299765692113e+00  5.0009852187756199e+00  5.0297220200029944e+00  5.5803235861080358e+00  6.2774580119091574e+00  6.2632300035824926e+00  5.5554224474100407e+00  5.1244342055731833e+00  4.8789166048472277e+00  5.6790719553473705e+00  5.5336574950990061e+00  5.2126241089728351e+00  4.7286177325824834e+00  5.6976997432127803e+00  5.8150377130271669e-01  4.9790278688188607e+00  5.2890257807581804e+00  2.9630099112905097e+00  1.2514830902567051e-01  4.7046989450008541e+00  4.9887857265685502e+00  4.3786070722961208e+00  2.4567231596746855e-01  2.5002539013316349e+00  1.9343455072478369e-01  4.3885492171121504e-01  2.6030270592836446e+00  5.5654032525539687e-01  2.6512593470556949e+00  1.7071141726123634e-01  5.7247413266173800e-03  5.5123790927298160e+00  5.9591957596675718e+00  6.1663428086374239e+00  5.2011873820303549e+00  5.1254951690197155e+00  5.5319265165718390e+00  4.7654425523187713e+00  5.2314608580840973e+00  1.3782170208934680e-02  6.7965204123494508e-02  1.1089960122601945e-02  5.3564054956336217e-03  5.7001889529416516e+00  6.0313018848663367e+00  9.9092855810458097e-02  5.8602729535516938e+00  5.8716690299271859e+00  5.6719605952156948e+00  5.0110977064284388e+00  5.6155056967425994e+00  4.9029911059167475e+00  5.3168302151853828e+00  4.9574478382985223e+00  4.0002983880611795e+00  2.8766934185180970e-01  4.9728014672958665e+00  4.9698503737360591e+00  5.8450531544821338e+00  5.0775463228909903e+00  3.8976093490935848e+00  1.4663392190696800e-01  8.3311300798339960e-01  7.2532524118425901e-01  5.6762705332085108e+00  5.3609928592545550e+00  5.6260587308444761e+00  5.2346441718995038e+00  4.8128107418314254e+00  9.7090678666006056e-02  4.8039420844469891e+00  5.1194032261327047e+00  5.3064157871119262e+00  4.2791155346366345e+00  2.5690509653078214e-01  2.2531104470252264e-01  2.3689552467419852e+00  6.1642037361972135e-01  2.6951750463351725e+00  3.7333615892895039e-01  2.7638311633311870e-02  4.3369718471152572e+00  3.8875843889476447e+00  8.5928324996526140e-02  1.0349148487455686e-02  5.3210518980552424e+00  4.3489744645053383e+00  1.2902775052019294e-01  4.4697611557689401e+00  4.8294026738242684e+00  5.6307470231246572e+00  3.6277571130564255e+00  7.4719036194514463e-02  3.0947142523135335e-01  3.0825176050157368e+00  2.9369095453126337e-01  5.0491025986056970e+00  4.4175639780698195e-01  3.9532772198230914e-01  5.8112993295273272e+00  5.2706514582503896e+00  5.4973651111099011e+00  6.0409868057087124e+00  6.1215321472698943e+00  5.1749118956674884e+00  2.9509689287053170e-01  2.4263448376087280e+00  1.6370627095019558e-01  5.7268994695594015e+00  5.4369800143970526e+00  4.8191277884952983e+00  5.6762154327747218e+00  3.0659356261984430e+00  3.1081598951939921e-01  5.0002620459651768e+00  5.4322154622153649e+00  4.7263099526516497e+00  5.4505584548696451e+00  5.2889672022020058e+00  3.0453289675968107e+00  1.3624543349425808e-01  5.4021239644769761e+00  5.0901241219370581e+00  4.5902672093152699e+00  1.8703662733879053e-01  5.0533617385721890e+00  4.9534110308163077e+00  2.2420080814995164e-01  5.2155894491351447e+00  2.3879177192180967e-01  1.9163734617350554e-02  7.5524064476583013e-03  4.8922590815872420e+00  5.5979001196901752e-02  6.0343784466648298e+00  8.2504518556447040e-02  4.2395486763424195e+00  6.7976860347189347e-02  1.0814420748422615e-02  4.2552329289092847e-02  5.5331473742682045e+00  4.9950588782076153e+00  5.0529623292668582e+00  1.7153356487843863e-01  2.4988666910013602e+00  7.0521511795893899e-01  2.4839639632753876e+00  1.9833586791906962e-01  5.8987703823884940e+00  5.9660062692989753e+00  5.5609224047386077e+00  5.0160868659261153e+00  5.3768734635530482e+00  5.6802006062290618e+00  5.5318940436769237e+00  5.0522354526894224e+00  4.7709827236367044e+00  2.4078902010586684e-01  1.7501459092612373e-01  2.6630989985437878e-02  5.0742221853016769e+00  5.3072259641557276e+00  4.9443191663265385e+00  3.8825109302037963e-01  2.7059582164946745e+00  3.4261290213856493e-01  5.3582978486990269e+00  4.8692229799912958e+00  4.7647996049241392e+00  5.9628981963634624e+00  1.0225659760672876e-01  5.0500371784042990e+00  5.7304895408487289e+00  2.8093207583563595e+00  2.6656086611850510e-01  3.9246124014058843e+00  5.6058268484258518e+00  5.1187779586801607e+00  5.5550352229311644e+00  4.8149130047259083e+00  4.0945156669493494e+00  5.6201917785751441e+00  5.8173815087028409e+00  5.6016877263741973e+00  4.0991042599795398e+00  4.4926841088170993e-02  1.7948115723413034e-03  8.1337301506944279e-03  1.7197473295612684e+00  6.5980323601762625e-01  5.6265486229564514e+00  5.4847243485054937e+00  6.7689358606651873e-02  4.3290288453989501e+00  8.2097142656336081e-02  5.4949922998499978e-01  2.9505796897361689e+00  3.8587281577277888e-01  5.9540456963590804e+00  3.4755759967541972e-01  6.1876470129853756e-01  4.7337870073690658e+00  4.8405515753018129e+00  7.3604523839812575e-01  5.9144344448875295e+00  5.0645466419928633e+00  5.6299768718094798e+00  5.9738813603702443e+00  1.3963442374067503e-01  2.6103891628131710e+00  4.8441993554471502e-01  3.3165435940132295e+00  1.4039983803709299e-01  4.8626739034613040e+00  3.7173581361958457e+00  6.2705218620746972e-01  2.9054534283165760e+00  3.7951776516903252e-01  4.6162507280584180e+00  3.6109559445831835e-01  2.9572800660324119e+00  2.1575891813773326e-01  5.0834348180340836e+00  5.0622583160897987e+00  1.2808688475733740e-01  5.0904533406317896e+00  6.2883666285497697e-01  4.8532355268737932e+00  4.7508490725979593e+00  5.9842949252602358e+00  5.3317027408146123e+00  2.1457278442376093e-01  5.5834508995641228e+00  5.1180434865059112e+00  5.5580955983313816e+00  5.0913888744568734e+00  1.9326864505037949e-03  9.1459925154558546e-04  2.0296562225266515e-01  4.8092381190240013e-01  3.7808199951157406e-01  5.3964999743472637e+00  5.2037047367345233e+00  5.0017879354921826e+00  4.3939463268090009e+00  2.2082392359384639e-01  2.6938294459265855e+00  3.4680736690973990e-01  2.3053299167937627e-01  9.8233312149396601e-01  6.1395013470324455e+00  8.7932564281518200e-01  5.0249109581360214e+00  5.9407625031966553e+00  7.7905432860017187e-01  5.4750361637356812e+00  5.3548503367409559e+00  5.2583025832671195e+00  4.9442127980198736e+00  5.3522697901349847e+00  3.5711208076297379e-01  2.5454464429686507e+00  3.4379747339840877e-01  5.3252181347342642e+00  5.1489348437817695e+00  3.0710633483299865e-01  2.6637317917114989e+00  4.9278905198317524e-01  3.2784173808716699e+00  5.7683013786532744e-01  2.8293822714369341e+00  3.3987121230313816e-01  4.3555378896684820e+00  1.2103682424624500e-01  5.1589631565241936e+00  4.7252995040865180e+00  5.3348812716110983e+00  5.5342597590954492e+00  5.3320112465995440e+00  5.6742401022108471e+00  7.5440337992583673e-01  8.3413873529550953e-01  3.5973367106386860e+00  1.2712374479874941e-01  4.9824424750080762e+00  5.4934169402618833e+00  3.3265068582491906e+00  9.7929720038971199e-02  1.9746078985853721e-01  2.5358122884700540e+00  3.5303847617558481e-01  1.1099034268971839e+00  7.0651818634492125e-01  5.5674072789489299e+00  1.9847704832566929e-02  4.1575559642697546e-02  7.3613690504940477e-03  1.7342349591005021e-01  3.2236026933834885e-02  3.8706101707036851e+00  4.4683174240826320e+00  3.8573030618534694e+00  7.8996958583621865e-02  5.4161918482428959e+00  5.3784059650989251e+00  7.8900356799308080e-01  4.8112003965449315e+00  3.6735434048228290e+00  2.7047756222967675e-02  4.8193815873804962e+00  5.4239067091107485e+00  1.1489106917997838e-02  2.2334823366820647e-01  4.5509967719420308e+00  1.1784488902338171e-01  5.2959539179766395e+00  4.0181841995944056e+00  4.0753832438706450e-01  5.4082634334667770e+00  4.4013733648420433e-01  2.3113210827555615e+00  5.8705727301768418e-01  3.9292642401594982e-03  4.9846428396395481e+00  3.9678403109373885e+00  6.1692709614285968e-02  5.3164870489088045e+00  5.2988939667188175e+00  5.2693637128534290e+00  5.3517406243849379e+00  4.9973096301990658e+00  5.5936619450903393e+00  5.9476465312668640e+00  2.9475718019896702e+00  3.5774534373778150e-01  5.0390571951460794e+00  5.3080488430527852e+00  9.2504569283139881e-02  1.0637961028251764e-03  3.1220227824566705e-03  3.4260772648112103e-01  2.8204764479061581e+00  5.9532490685442410e+00  4.8109895644859320e+00  5.1540146482663740e+00  5.3742187072127372e+00  4.7099630133383013e+00  5.9871363284238415e+00  8.5316341664184803e-01  5.8605953072691994e+00  3.5487581159370194e+00  3.0716396728239914e-01  7.5150503311643829e-02  1.4225531382721836e-02  4.6102428237030129e+00  8.3557870250046823e-02  8.0496785861890552e-01  5.6057326109487748e+00  4.9093635934501503e+00  2.2900002998805055e-02  1.7556228775677801e-01  1.4387976373932729e-02  5.5430802394195844e+00  5.1831715273464161e+00  5.1007829156714148e+00  3.8548166443139653e+00  6.1505966832711541e-02  5.8843783237599148e+00  2.7870145360120309e+00  2.2618424074851165e-01  3.9715502235949298e+00  5.6769002454153838e-01  2.5585400956247053e+00  4.2633195623020997e-01  4.6066246637274020e+00  1.0245939107955325e-01  5.6111289684192380e+00  5.2970835906147959e+00  4.7673299785988279e+00  5.0107468019337444e+00  5.3106289756401361e+00  5.0279586569038477e+00  4.8692754301017516e+00  5.9969626175456252e+00  3.3540701691952884e-01  2.5038590993323711e+00  4.3178343957108206e-01  4.8933376223370217e+00  2.8945825903033587e-02  1.8898164386757588e-03  2.6733515753259748e-03  1.7628579030216887e-01  4.4376871929616488e+00  6.7318978408889923e-02  3.3440311378109930e+00  5.5986616118894013e+00  6.2670465236075747e+00  5.7188092487260036e+00  5.9857762361315086e+00  8.8935306935190572e-01  5.0814962229381733e+00  3.0322910611278225e-01  2.4306961895068238e+00  4.2256685493142976e-01  7.8003285985207976e-03  4.5456712992629207e+00  3.7668569112905210e+00  4.0821636560029173e-01  2.6494063470284459e+00  1.2630187610376870e-01  4.0417855103598338e-01  2.6191707083698557e+00  3.4354337956154918e-01  4.9016967400102693e+00  5.3265961139960876e+00  5.1138029412318478e+00  5.7167260198683074e+00  5.8718238834282435e+00  6.1063313994529711e-01  1.7846642410297955e-01  5.1392068288046966e+00  5.4020975990162423e+00  3.8667755248767541e+00  6.8345178384400607e-01  2.5805212875807730e+00  2.2539416868003848e-01  3.8005414680340369e-02  4.1536902708681254e+00  4.8857925682368027e-02  4.4272131880292527e+00  1.1430925301399841e-01  3.3953512701505413e+00  3.0553135335172099e-01  1.3954833733617858e-01  2.7101942886726067e+00  3.5692997082734834e-01  4.1455480159839331e-01  2.5856553737372998e+00  2.1437586754708346e-01  1.4257270673446014e-03  5.0482451659755680e-04  1.1178846361628643e-01  3.5281046734298767e+00  5.4911662863422990e+00  5.0549883577228361e+00  4.9212874769830585e-02  5.5110904232152791e+00  1.0827242847728331e-02  5.1404666211920791e-01  5.8042166146284897e+00  4.2001468044226238e+00  5.2604551523008949e+00  5.0576013280755250e+00  3.8385296141719949e-01  2.6018984474465876e+00  3.9281300361531002e-01  6.3324904084077543e-04  2.4745871418385154e-01  2.7632581886307030e+00  3.2791300535294610e-01  2.0785368860327583e-01  2.2726300872977254e+00  7.9445661015036151e-01  2.9910685822268785e+00  1.5734079031526374e-01  4.7968155688885945e+00  5.3834852546046728e+00  4.4070548972681092e+00  1.1954256865712101e-01  4.4936472137036292e+00  2.6009824060547093e-01  4.9200140953172919e+00  1.9027365737235483e-01  2.7956750237061267e-01  2.8301914079281527e+00  5.6044092224766850e-01  3.5314542037636265e-03  5.6799427098769231e+00  3.0682766734437257e+00  3.0244420007011952e-01  2.6450925208421631e-02  1.9352827114506241e-01  3.3265384999503433e-01  2.4762025378597712e+00  4.1405795281976016e-01  3.5508295487050778e-01  2.5561329151221930e+00  1.9122301751501039e-01  2.6484566285009625e-01  5.0652946041626912e+00  1.5220697654359522e-01  9.8144134161980644e-04  1.7144307738775257e-03  4.7505751754080844e-01  2.9085715357907049e+00  1.6331354365498851e-01  5.8745629278869016e+00  4.9154772201947976e+00  6.2238057031135297e+00  4.9166475649483479e+00  5.2990294378678167e+00  8.6918806805138771e-01  1.3038267274500933e-02  4.4623400707486987e+00  2.2537980948294914e-01  3.9149580612988649e-01  2.5927752538762872e+00  1.8416820077677587e-01  5.4202393137265048e+00  1.6940988021657488e-01  2.2014352333679280e-02  5.6776322919454714e+00  4.1225804700378188e-01  2.5518783959607010e+00  5.7912261091256256e-01  3.1587717995753260e-03  4.7625913339643677e+00  4.2750302954605237e+00  9.2018343310769052e-02  5.2040585425351029e+00  4.1324777184618211e-01  2.7406749042115837e+00  5.7189980451733813e-01  2.5156689373172449e+00  4.0243899031621067e-01  3.7362854786213262e-01  2.6976274418346367e+00  2.0769991190174289e-01  5.0854594881301720e+00  4.4500994470341043e-01  2.4579643711041226e+00  6.2174862663735875e-01  2.5917436567930618e+00  3.6516163319171147e-01  4.2342617228437296e-01  2.5824063315240875e+00  1.9781005386727959e-01  1.3824397974497926e-01  8.4200751832291448e-02  7.1342704444077809e-01  7.3444179926640629e-01  3.3572020950712957e+00  1.6162714160196787e-01  2.0112273208487114e-01  2.4993614885978785e+00  3.5705141526086126e-01  3.0680486562043291e-01  3.3441966589834138e+00  4.9537762245025636e+00  5.1607938755982419e+00  5.0371628220039870e+00  5.0024014169798372e+00  8.4221978429646893e-01  5.5917465868133620e+00  2.0229438251066678e-01  2.4453191781192309e+00  3.9740359897144145e-01  1.9380224483862224e-01  6.2595465874347109e+00  4.7507390606343689e+00  5.0077476524418234e+00  5.4873051874383441e+00  3.8868326644092099e+00  7.4511646227851919e-02  4.0852134309341581e-01  2.5846702165496249e+00  3.7695151812755029e-01  4.4759286503874556e+00  1.9641201206733652e-01  5.1352800996526877e+00  5.5404189069197987e+00  2.5517492389979104e+00  7.5328947418894487e-01  3.0091057553132927e+00  6.4718770433232042e-01  2.6221382319994166e+00  3.8986123747003137e-01  1.8804256263984986e-01  1.7303065811826465e-01  5.3728522681164455e+00  3.0729588768327623e+00  7.3159267019859531e-01  2.5909372274185016e+00  7.8398352942156002e-01  3.0272843924245478e+00  3.3122475492780901e-01  2.0035716897533817e-01  5.2507190703768645e+00  5.1854209601026104e+00  3.7397751378393020e+00  8.1316765327082252e-01  7.6295843752807535e-01  3.0589033866035562e+00  1.4364417292582121e-01  1.7909643938385819e-03  2.0589650431548681e-01  4.1017994957114384e-01  2.4754998067961935e+00  5.4881743906659730e-01  4.4632811756245854e+00  5.5730197489204052e+00  5.8505313914813524e+00  5.6157449832674411e+00  1.2655180896836041e-01  3.2754745440856579e+00  1.0328196981407026e-01  4.0063089204673136e-01  2.5802233424263572e+00  1.6254910197030553e-01  4.8381422653623183e+00  4.6929229482209243e+00  5.2649524222483270e+00  3.7249688377146537e+00  3.4948290514542790e-01  4.6361196269419768e-03  1.4005982910537615e-03  3.2970292451845634e-01  3.0667438609991309e+00  4.1006787838494241e-01  2.9988113712923608e+00  5.7571681073039223e+00  2.8337772788608144e+00  6.9395892157291250e-01  2.5766282697367124e+00  5.9764572823442119e-01  4.1641163217517816e+00  5.3717944373133997e-01  2.7786877343121179e+00  5.6618917588682094e-01  2.6059573665648572e+00  3.5554331100492659e-01  3.1205868836217993e-01  2.9017218614625899e+00  7.4791238220065426e-01  2.5770428637170628e+00  7.4358794088053526e-01  2.9892930653074359e+00  3.3554704283110076e-01  3.8615170298318409e-02  6.2736755213559521e+00  2.1564179924385050e-02  5.9072359388108255e+00  5.5908641551893714e+00  4.7025107286206671e+00  2.7509950932553616e-02  3.5696135860915864e-03  3.8707351357595565e-01  2.6631583477448375e+00  7.7812060748459599e-01  2.6993549744280010e+00  2.0283713036313378e-01  4.9323197118854534e+00  5.8658132563578977e+00  5.9948512249292225e+00  5.5349945154944606e+00  4.4630138098353422e-02  5.7382618048054814e+00  2.5852740729055725e-02  1.9534005399841076e-01  5.8348661238634971e+00  5.2677830955746447e+00  3.0531898500683691e-02  5.3744174627067283e+00  2.5488496814657252e-01  2.4612324981526763e+00  3.6776043793738744e-01  5.2951235871008127e+00  4.9412170794635726e+00  5.0720217873815292e+00  3.6894531787153895e+00  3.5353070437024015e-01  8.7236743037973439e-03  3.1970506269780902e-01  2.5088948381045935e+00  7.3522139185811641e-01  3.0788219336001679e+00  5.3711975722589358e+00  3.8397749342762397e+00  5.3628950581245771e-01  2.8538316414148692e+00  7.1748307711290293e-01  2.9643346816063807e+00  3.3343682087539950e-01  3.4389607675111639e-01  2.9314430336284021e+00  7.4401915044753997e-01  2.6013115741423389e+00  7.3437724637630164e-01  2.9402132636318643e+00  3.2046151595351574e-01  3.9148172887615573e-01  5.6816857124499034e+00  5.5937225430279609e+00  5.8769234412046663e+00  5.1468152153244251e+00  6.2531185994613434e+00  1.8449128402980511e-01  2.6209432550290463e+00  7.3258917229003728e-01  2.9861509292232942e+00  3.6392251239013412e-01  5.0904974864296468e+00  5.1332190358527230e+00  2.9806325313120934e+00  6.5714501174483950e-02  5.5419743399362504e+00  2.8760629892678306e-02  4.7576987747369843e+00  4.7182959234655479e+00  1.0126389218387624e-01  5.5133208975756354e+00  5.6835473522780102e+00  5.4767327948105846e+00  3.6392820811624156e+00  4.7655908371785627e-02  3.4700647173028537e-01  2.9129285408683598e+00  4.8175876557734609e+00  5.5619255098155298e+00  5.1539316940703337e+00  2.1813838249149314e-01  3.5011590404506578e+00  1.9816524775050265e-01  9.1868409552851964e-03  4.0495803757809246e-01  2.6041674271745676e+00  3.4090619390009996e-01  4.7279720842523192e+00  4.9607339574827689e+00  3.8055634128694162e+00  6.7991361882651236e-01  2.9850038664940630e+00  6.8932322394749201e-01  2.9276507316300067e+00  3.3551241916005053e-01  3.4474031613459594e-01  2.9132870633761416e+00  7.2926066926448496e-01  2.6555342812028759e+00  6.9504274089126739e-01  3.1323568406956093e+00  9.8087167458327906e-02  5.5594332963128572e+00  5.0652388689196801e+00  4.9902864948804542e+00  5.2028556864205138e+00  5.8057166127979229e+00  3.2500221092581234e-03  5.5149347990642617e-01  2.9759715824082358e+00  3.4145152752361829e-01  2.1239784811719034e-01  4.9655276311837433e+00  4.9470791650242845e+00  7.4726700748958805e-02  5.2480297018071171e+00  6.9785666781927636e-01  5.5985956198534605e+00  5.0966589070494264e+00  2.0410458172439180e-01  4.1574298645038832e