<?xml version="1.0"?>
<VTKFile type="UnstructuredGrid"  version="0.1"  >
<UnstructuredGrid>
<Piece  NumberOfPoints="168" NumberOfCells="286">
<Points>
<DataArray  type="Float64"  NumberOfComponents="3"  format="ascii">0 0 0  0.07692307692307693 0 0  0.1538461538461539 0 0  0.2307692307692308 0 0  0.3076923076923077 0 0  0.3846153846153846 0 0  0.4615384615384616 0 0  0.5384615384615384 0 0  0.6153846153846154 0 0  0.6923076923076923 0 0  0.7692307692307693 0 0  0.8461538461538461 0 0  0.9230769230769231 0 0  1 0 0  0 0.09090909090909091 0  0.07692307692307693 0.09090909090909091 0  0.1538461538461539 0.09090909090909091 0  0.2307692307692308 0.09090909090909091 0  0.3076923076923077 0.09090909090909091 0  0.3846153846153846 0.09090909090909091 0  0.4615384615384616 0.09090909090909091 0  0.5384615384615384 0.09090909090909091 0  0.6153846153846154 0.09090909090909091 0  0.6923076923076923 0.09090909090909091 0  0.7692307692307693 0.09090909090909091 0  0.8461538461538461 0.09090909090909091 0  0.9230769230769231 0.09090909090909091 0  1 0.09090909090909091 0  0 0.1818181818181818 0  0.07692307692307693 0.1818181818181818 0  0.1538461538461539 0.1818181818181818 0  0.2307692307692308 0.1818181818181818 0  0.3076923076923077 0.1818181818181818 0  0.3846153846153846 0.1818181818181818 0  0.4615384615384616 0.1818181818181818 0  0.5384615384615384 0.1818181818181818 0  0.6153846153846154 0.1818181818181818 0  0.6923076923076923 0.1818181818181818 0  0.7692307692307693 0.1818181818181818 0  0.8461538461538461 0.1818181818181818 0  0.9230769230769231 0.1818181818181818 0  1 0.1818181818181818 0  0 0.2727272727272727 0  0.07692307692307693 0.2727272727272727 0  0.1538461538461539 0.2727272727272727 0  0.2307692307692308 0.2727272727272727 0  0.3076923076923077 0.2727272727272727 0  0.3846153846153846 0.2727272727272727 0  0.4615384615384616 0.2727272727272727 0  0.5384615384615384 0.2727272727272727 0  0.6153846153846154 0.2727272727272727 0  0.6923076923076923 0.2727272727272727 0  0.7692307692307693 0.2727272727272727 0  0.8461538461538461 0.2727272727272727 0  0.9230769230769231 0.2727272727272727 0  1 0.2727272727272727 0  0 0.3636363636363636 0  0.07692307692307693 0.3636363636363636 0  0.1538461538461539 0.3636363636363636 0  0.2307692307692308 0.3636363636363636 0  0.3076923076923077 0.3636363636363636 0  0.3846153846153846 0.3636363636363636 0  0.4615384615384616 0.3636363636363636 0  0.5384615384615384 0.3636363636363636 0  0.6153846153846154 0.3636363636363636 0  0.6923076923076923 0.3636363636363636 0  0.7692307692307693 0.3636363636363636 0  0.8461538461538461 0.3636363636363636 0  0.9230769230769231 0.3636363636363636 0  1 0.3636363636363636 0  0 0.4545454545454545 0  0.07692307692307693 0.4545454545454545 0  0.1538461538461539 0.4545454545454545 0  0.2307692307692308 0.4545454545454545 0  0.3076923076923077 0.4545454545454545 0  0.3846153846153846 0.4545454545454545 0  0.4615384615384616 0.4545454545454545 0  0.5384615384615384 0.4545454545454545 0  0.6153846153846154 0.4545454545454545 0  0.6923076923076923 0.4545454545454545 0  0.7692307692307693 0.4545454545454545 0  0.8461538461538461 0.4545454545454545 0  0.9230769230769231 0.4545454545454545 0  1 0.4545454545454545 0  0 0.5454545454545454 0  0.07692307692307693 0.5454545454545454 0  0.1538461538461539 0.5454545454545454 0  0.2307692307692308 0.5454545454545454 0  0.3076923076923077 0.5454545454545454 0  0.3846153846153846 0.5454545454545454 0  0.4615384615384616 0.5454545454545454 0  0.5384615384615384 0.5454545454545454 0  0.6153846153846154 0.5454545454545454 0  0.6923076923076923 0.5454545454545454 0  0.7692307692307693 0.5454545454545454 0  0.8461538461538461 0.5454545454545454 0  0.9230769230769231 0.5454545454545454 0  1 0.5454545454545454 0  0 0.6363636363636364 0  0.07692307692307693 0.6363636363636364 0  0.1538461538461539 0.6363636363636364 0  0.2307692307692308 0.6363636363636364 0  0.3076923076923077 0.6363636363636364 0  0.3846153846153846 0.6363636363636364 0  0.4615384615384616 0.6363636363636364 0  0.5384615384615384 0.6363636363636364 0  0.6153846153846154 0.6363636363636364 0  0.6923076923076923 0.6363636363636364 0  0.7692307692307693 0.6363636363636364 0  0.8461538461538461 0.6363636363636364 0  0.9230769230769231 0.6363636363636364 0  1 0.6363636363636364 0  0 0.7272727272727273 0  0.07692307692307693 0.7272727272727273 0  0.1538461538461539 0.7272727272727273 0  0.2307692307692308 0.7272727272727273 0  0.3076923076923077 0.7272727272727273 0  0.3846153846153846 0.7272727272727273 0  0.4615384615384616 0.7272727272727273 0  0.5384615384615384 0.7272727272727273 0  0.6153846153846154 0.7272727272727273 0  0.6923076923076923 0.7272727272727273 0  0.7692307692307693 0.7272727272727273 0  0.8461538461538461 0.7272727272727273 0  0.9230769230769231 0.7272727272727273 0  1 0.7272727272727273 0  0 0.8181818181818182 0  0.07692307692307693 0.8181818181818182 0  0.1538461538461539 0.8181818181818182 0  0.2307692307692308 0.8181818181818182 0  0.3076923076923077 0.8181818181818182 0  0.3846153846153846 0.8181818181818182 0  0.4615384615384616 0.8181818181818182 0  0.5384615384615384 0.8181818181818182 0  0.6153846153846154 0.8181818181818182 0  0.6923076923076923 0.8181818181818182 0  0.7692307692307693 0.8181818181818182 0  0.8461538461538461 0.8181818181818182 0  0.9230769230769231 0.8181818181818182 0  1 0.8181818181818182 0  0 0.9090909090909091 0  0.07692307692307693 0.9090909090909091 0  0.1538461538461539 0.9090909090909091 0  0.2307692307692308 0.9090909090909091 0  0.3076923076923077 0.9090909090909091 0  0.3846153846153846 0.9090909090909091 0  0.4615384615384616 0.9090909090909091 0  0.5384615384615384 0.9090909090909091 0  0.6153846153846154 0.9090909090909091 0  0.6923076923076923 0.9090909090909091 0  0.7692307692307693 0.9090909090909091 0  0.8461538461538461 0.9090909090909091 0  0.9230769230769231 0.9090909090909091 0  1 0.9090909090909091 0  0 1 0  0.07692307692307693 1 0  0.1538461538461539 1 0  0.2307692307692308 1 0  0.3076923076923077 1 0  0.3846153846153846 1 0  0.4615384615384616 1 0  0.5384615384615384 1 0  0.6153846153846154 1 0  0.6923076923076923 1 0  0.7692307692307693 1 0  0.8461538461538461 1 0  0.9230769230769231 1 0  1 1 0  </DataArray>
</Points>
<Cells>
<DataArray  type="UInt32"  Name="connectivity"  format="ascii">0 1 15  0 14 15  1 2 16  1 15 16  2 3 17  2 16 17  3 4 18  3 17 18  4 5 19  4 18 19  5 6 20  5 19 20  6 7 21  6 20 21  7 8 22  7 21 22  8 9 23  8 22 23  9 10 24  9 23 24  10 11 25  10 24 25  11 12 26  11 25 26  12 13 27  12 26 27  14 15 29  14 28 29  15 16 30  15 29 30  16 17 31  16 30 31  17 18 32  17 31 32  18 19 33  18 32 33  19 20 34  19 33 34  20 21 35  20 34 35  21 22 36  21 35 36  22 23 37  22 36 37  23 24 38  23 37 38  24 25 39  24 38 39  25 26 40  25 39 40  26 27 41  26 40 41  28 29 43  28 42 43  29 30 44  29 43 44  30 31 45  30 44 45  31 32 46  31 45 46  32 33 47  32 46 47  33 34 48  33 47 48  34 35 49  34 48 49  35 36 50  35 49 50  36 37 51  36 50 51  37 38 52  37 51 52  38 39 53  38 52 53  39 40 54  39 53 54  40 41 55  40 54 55  42 43 57  42 56 57  43 44 58  43 57 58  44 45 59  44 58 59  45 46 60  45 59 60  46 47 61  46 60 61  47 48 62  47 61 62  48 49 63  48 62 63  49 50 64  49 63 64  50 51 65  50 64 65  51 52 66  51 65 66  52 53 67  52 66 67  53 54 68  53 67 68  54 55 69  54 68 69  56 57 71  56 70 71  57 58 72  57 71 72  58 59 73  58 72 73  59 60 74  59 73 74  60 61 75  60 74 75  61 62 76  61 75 76  62 63 77  62 76 77  63 64 78  63 77 78  64 65 79  64 78 79  65 66 80  65 79 80  66 67 81  66 80 81  67 68 82  67 81 82  68 69 83  68 82 83  70 71 85  70 84 85  71 72 86  71 85 86  72 73 87  72 86 87  73 74 88  73 87 88  74 75 89  74 88 89  75 76 90  75 89 90  76 77 91  76 90 91  77 78 92  77 91 92  78 79 93  78 92 93  79 80 94  79 93 94  80 81 95  80 94 95  81 82 96  81 95 96  82 83 97  82 96 97  84 85 99  84 98 99  85 86 100  85 99 100  86 87 101  86 100 101  87 88 102  87 101 102  88 89 103  88 102 103  89 90 104  89 103 104  90 91 105  90 104 105  91 92 106  91 105 106  92 93 107  92 106 107  93 94 108  93 107 108  94 95 109  94 108 109  95 96 110  95 109 110  96 97 111  96 110 111  98 99 113  98 112 113  99 100 114  99 113 114  100 101 115  100 114 115  101 102 116  101 115 116  102 103 117  102 116 117  103 104 118  103 117 118  104 105 119  104 118 119  105 106 120  105 119 120  106 107 121  106 120 121  107 108 122  107 121 122  108 109 123  108 122 123  109 110 124  109 123 124  110 111 125  110 124 125  112 113 127  112 126 127  113 114 128  113 127 128  114 115 129  114 128 129  115 116 130  115 129 130  116 117 131  116 130 131  117 118 132  117 131 132  118 119 133  118 132 133  119 120 134  119 133 134  120 121 135  120 134 135  121 122 136  121 135 136  122 123 137  122 136 137  123 124 138  123 137 138  124 125 139  124 138 139  126 127 141  126 140 141  127 128 142  127 141 142  128 129 143  128 142 143  129 130 144  129 143 144  130 131 145  130 144 145  131 132 146  131 145 146  132 133 147  132 146 147  133 134 148  133 147 148  134 135 149  134 148 149  135 136 150  135 149 150  136 137 151  136 150 151  137 138 152  137 151 152  138 139 153  138 152 153  140 141 155  140 154 155  141 142 156  141 155 156  142 143 157  142 156 157  143 144 158  143 157 158  144 145 159  144 158 159  145 146 160  145 159 160  146 147 161  146 160 161  147 148 162  147 161 162  148 149 163  148 162 163  149 150 164  149 163 164  150 151 165  150 164 165  151 152 166  151 165 166  152 153 167  152 166 167  </DataArray>
<DataArray  type="UInt32"  Name="offsets"  format="ascii">3 6 9 12 15 18 21 24 27 30 33 36 39 42 45 48 51 54 57 60 63 66 69 72 75 78 81 84 87 90 93 96 99 102 105 108 111 114 117 120 123 126 129 132 135 138 141 144 147 150 153 156 159 162 165 168 171 174 177 180 183 186 189 192 195 198 201 204 207 210 213 216 219 222 225 228 231 234 237 240 243 246 249 252 255 258 261 264 267 270 273 276 279 282 285 288 291 294 297 300 303 306 309 312 315 318 321 324 327 330 333 336 339 342 345 348 351 354 357 360 363 366 369 372 375 378 381 384 387 390 393 396 399 402 405 408 411 414 417 420 423 426 429 432 435 438 441 444 447 450 453 456 459 462 465 468 471 474 477 480 483 486 489 492 495 498 501 504 507 510 513 516 519 522 525 528 531 534 537 540 543 546 549 552 555 558 561 564 567 570 573 576 579 582 585 588 591 594 597 600 603 606 609 612 615 618 621 624 627 630 633 636 639 642 645 648 651 654 657 660 663 666 669 672 675 678 681 684 687 690 693 696 699 702 705 708 711 714 717 720 723 726 729 732 735 738 741 744 747 750 753 756 759 762 765 768 771 774 777 780 783 786 789 792 795 798 801 804 807 810 813 816 819 822 825 828 831 834 837 840 843 846 849 852 855 858 </DataArray>
<DataArray  type="UInt8"  Name="types"  format="ascii">5 5 5 5 5 5 5 5 5 5 5 5 5 5 5 5 5 5 5 5 5 5 5 5 5 5 5 5 5 5 5 5 5 5 5 5 5 5 5 5 5 5 5 5 5 5 5 5 5 5 5 5 5 5 5 5 5 5 5 5 5 5 5 5 5 5 5 5 5 5 5 5 5 5 5 5 5 5 5 5 5 5 5 5 5 5 5 5 5 5 5 5 5 5 5 5 5 5 5 5 5 5 5 5 5 5 5 5 5 5 5 5 5 5 5 5 5 5 5 5 5 5 5 5 5 5 5 5 5 5 5 5 5 5 5 5 5 5 5 5 5 5 5 5 5 5 5 5 5 5 5 5 5 5 5 5 5 5 5 5 5 5 5 5 5 5 5 5 5 5 5 5 5 5 5 5 5 5 5 5 5 5 5 5 5 5 5 5 5 5 5 5 5 5 5 5 5 5 5 5 5 5 5 5 5 5 5 5 5 5 5 5 5 5 5 5 5 5 5 5 5 5 5 5 5 5 5 5 5 5 5 5 5 5 5 5 5 5 5 5 5 5 5 5 5 5 5 5 5 5 5 5 5 5 5 5 5 5 5 5 5 5 5 5 5 5 5 5 5 5 5 5 5 5 5 5 5 5 5 5 5 5 5 5 5 5 </DataArray>
</Cells>
<PointData  Scalars="f_21"> 
<DataArray  type="Float64"  Name="f_21"  format="ascii">3.9270871602172543e+00  4.0090916107491967e+00  4.1059224794498634e+00  4.2176645107151547e+00  4.3445874091865591e+00  4.4851316894063826e+00  4.6353368692039432e+00  4.7890606892773091e+00  4.9392620352578680e+00  5.0798002049255064e+00  5.2067169517782332e+00  5.3184548620821133e+00  5.4152852010830461e+00  5.4974891990225352e+00  3.8285244239180050e+00  3.9101872500442587e+00  4.0101295891940607e+00  4.1303259526194891e+00  4.2729607323014278e+00  4.4374915577474132e+00  4.6186728684237366e+00  4.8061623191942076e+00  4.9873264632835612e+00  5.1518399410345532e+00  5.2944656528027991e+00  5.4146540803954197e+00  5.5145898191909311e+00  5.5962474131980970e+00  3.7093500205462164e+00  3.7864178916657218e+00  3.8849099739055641e+00  4.0101324003393577e+00  4.1687577406297205e+00  4.3645297714244675e+00  4.5921444601902452e+00  4.8327581767157435e+00  5.0603561139426079e+00  5.2560908791118814e+00  5.4146683116389811e+00  5.5398804429412989e+00  5.6383644797122390e+00  5.7154224104392757e+00  3.5690441301972702e+00  3.6345481233399832e+00  3.7225645815245194e+00  3.8426780764831401e+00  4.0101350484118381e+00  4.2426274641943973e+00  4.5447945736384465e+00  4.8801163006923076e+00  5.1822726549464981e+00  5.4147459904311495e+00  5.5821592723446445e+00  5.7022252588118585e+00  5.7902356038785499e+00  5.8557273874166000e+00  3.4084399913248897e+00  3.4533881905759354e+00  3.5168376290075951e+00  3.6103990651614817e+00  3.7583845257919801e+00  4.0101316597755963e+00  4.4374815562470662e+00  4.9873767452575564e+00  5.4146650193469661e+00  5.6663778255074115e+00  5.8143356656378584e+00  5.9078273588121561e+00  5.9712833710692541e+00  6.0163088289192235e+00  3.2326026969144093e+00  3.2486068237246362e+00  3.2721108983227878e+00  3.3087914777737777e+00  3.3736626970921324e+00  3.5168785883874816e+00  4.0101289714621995e+00  5.4136740187827819e+00  5.9048002333710681e+00  6.0438349550472896e+00  6.1027036571723787e+00  6.1318262025702390e+00  6.1465863615112033e+00  6.1738481543707691e+00  3.0510338853040260e+00  3.0345455536794579e+00  3.0109644039336612e+00  2.9742488025429235e+00  2.9094033623084368e+00  2.7662147236136216e+00  2.2720575506885012e+00  8.6853570767898225e-01  3.7536454891118304e-01  2.3220968767053457e-01  1.6738995893691178e-01  1.3070476948961621e-01  1.0714711022236321e-01  9.0599424855472899e-02  2.8752022622014182e+00  2.8297719053679873e+00  2.7662692273524940e+00  2.6726615494786632e+00  2.5246965587382255e+00  2.2729937172389776e+00  1.8457102911906855e+00  1.2958333743374706e+00  8.6852851527126351e-01  6.1682211960712441e-01  4.6885725548868645e-01  3.7530640672200211e-01  3.1180948416613197e-01  2.6637706229485936e-01  2.7146063704781436e+00  2.6486212309104888e+00  2.5605915372226935e+00  2.4404315240267502e+00  2.2729595813225991e+00  2.0405047295850460e+00  1.7383845034954954e+00  1.4031023793268893e+00  1.1009768532693227e+00  8.6853541296884917e-01  7.0109992367280816e-01  5.8098217398800434e-01  4.9296100697129086e-01  4.2697497092550007e-01  2.5743071428351336e+00  2.4967608308473466e+00  2.3982610799714084e+00  2.2730346161056514e+00  2.1143953424919157e+00  1.9186229774669072e+00  1.6910311453201807e+00  1.4504536566197124e+00  1.2228738049326662e+00  1.0271271409171934e+00  8.6853914621455219e-01  7.4331835583629768e-01  6.4482534762103205e-01  5.6727744071845432e-01  2.4551344282293557e+00  2.3729994195784165e+00  2.2730511821606054e+00  2.1528525035360224e+00  2.0102186750249929e+00  1.8456899136760747e+00  1.6645133156691736e+00  1.4770307274730583e+00  1.2958719459915766e+00  1.1313591127810159e+00  9.8872966704653165e-01  8.6853695352676308e-01  7.6859384935754460e-01  6.8645436236785606e-01  2.3563356238246036e+00  2.2740994281022378e+00  2.1772674823612075e+00  2.0655255198575304e+00  1.9386038061281883e+00  1.7980616336513202e+00  1.6478587644312686e+00  1.4941365032081073e+00  1.3439354004553794e+00  1.2033961506738537e+00  1.0764772497239603e+00  9.6473650956776946e-01  8.6790240364530324e-01  7.8545797357518943e-01  </DataArray> 
</PointData> 
</Piece>
</UnstructuredGrid>
</VTKFile>