<?xml version="1.0"?>
<VTKFile type="UnstructuredGrid"  version="0.1"  >
<UnstructuredGrid>
<Piece  NumberOfPoints="5101" NumberOfCells="10000">
<Points>
<DataArray  type="Float64"  NumberOfComponents="3"  format="ascii">0 0 0  0.2 0 0  0.4 0 0  0.6 0 0  0.8 0 0  1 0 0  1.2 0 0  1.4 0 0  1.6 0 0  1.8 0 0  2 0 0  2.2 0 0  2.4 0 0  2.6 0 0  2.8 0 0  3 0 0  3.2 0 0  3.4 0 0  3.6 0 0  3.8 0 0  4 0 0  4.2 0 0  4.4 0 0  4.6 0 0  4.8 0 0  5 0 0  5.2 0 0  5.4 0 0  5.6 0 0  5.8 0 0  6 0 0  6.2 0 0  6.4 0 0  6.6 0 0  6.8 0 0  7 0 0  7.2 0 0  7.4 0 0  7.6 0 0  7.8 0 0  8 0 0  8.199999999999999 0 0  8.4 0 0  8.6 0 0  8.800000000000001 0 0  9 0 0  9.199999999999999 0 0  9.4 0 0  9.6 0 0  9.800000000000001 0 0  10 0 0  0 0.2 0  0.2 0.2 0  0.4 0.2 0  0.6 0.2 0  0.8 0.2 0  1 0.2 0  1.2 0.2 0  1.4 0.2 0  1.6 0.2 0  1.8 0.2 0  2 0.2 0  2.2 0.2 0  2.4 0.2 0  2.6 0.2 0  2.8 0.2 0  3 0.2 0  3.2 0.2 0  3.4 0.2 0  3.6 0.2 0  3.8 0.2 0  4 0.2 0  4.2 0.2 0  4.4 0.2 0  4.6 0.2 0  4.8 0.2 0  5 0.2 0  5.2 0.2 0  5.4 0.2 0  5.6 0.2 0  5.8 0.2 0  6 0.2 0  6.2 0.2 0  6.4 0.2 0  6.6 0.2 0  6.8 0.2 0  7 0.2 0  7.2 0.2 0  7.4 0.2 0  7.6 0.2 0  7.8 0.2 0  8 0.2 0  8.199999999999999 0.2 0  8.4 0.2 0  8.6 0.2 0  8.800000000000001 0.2 0  9 0.2 0  9.199999999999999 0.2 0  9.4 0.2 0  9.6 0.2 0  9.800000000000001 0.2 0  10 0.2 0  0 0.4 0  0.2 0.4 0  0.4 0.4 0  0.6 0.4 0  0.8 0.4 0  1 0.4 0  1.2 0.4 0  1.4 0.4 0  1.6 0.4 0  1.8 0.4 0  2 0.4 0  2.2 0.4 0  2.4 0.4 0  2.6 0.4 0  2.8 0.4 0  3 0.4 0  3.2 0.4 0  3.4 0.4 0  3.6 0.4 0  3.8 0.4 0  4 0.4 0  4.2 0.4 0  4.4 0.4 0  4.6 0.4 0  4.8 0.4 0  5 0.4 0  5.2 0.4 0  5.4 0.4 0  5.6 0.4 0  5.8 0.4 0  6 0.4 0  6.2 0.4 0  6.4 0.4 0  6.6 0.4 0  6.8 0.4 0  7 0.4 0  7.2 0.4 0  7.4 0.4 0  7.6 0.4 0  7.8 0.4 0  8 0.4 0  8.199999999999999 0.4 0  8.4 0.4 0  8.6 0.4 0  8.800000000000001 0.4 0  9 0.4 0  9.199999999999999 0.4 0  9.4 0.4 0  9.6 0.4 0  9.800000000000001 0.4 0  10 0.4 0  0 0.6 0  0.2 0.6 0  0.4 0.6 0  0.6 0.6 0  0.8 0.6 0  1 0.6 0  1.2 0.6 0  1.4 0.6 0  1.6 0.6 0  1.8 0.6 0  2 0.6 0  2.2 0.6 0  2.4 0.6 0  2.6 0.6 0  2.8 0.6 0  3 0.6 0  3.2 0.6 0  3.4 0.6 0  3.6 0.6 0  3.8 0.6 0  4 0.6 0  4.2 0.6 0  4.4 0.6 0  4.6 0.6 0  4.8 0.6 0  5 0.6 0  5.2 0.6 0  5.4 0.6 0  5.6 0.6 0  5.8 0.6 0  6 0.6 0  6.2 0.6 0  6.4 0.6 0  6.6 0.6 0  6.8 0.6 0  7 0.6 0  7.2 0.6 0  7.4 0.6 0  7.6 0.6 0  7.8 0.6 0  8 0.6 0  8.199999999999999 0.6 0  8.4 0.6 0  8.6 0.6 0  8.800000000000001 0.6 0  9 0.6 0  9.199999999999999 0.6 0  9.4 0.6 0  9.6 0.6 0  9.800000000000001 0.6 0  10 0.6 0  0 0.8 0  0.2 0.8 0  0.4 0.8 0  0.6 0.8 0  0.8 0.8 0  1 0.8 0  1.2 0.8 0  1.4 0.8 0  1.6 0.8 0  1.8 0.8 0  2 0.8 0  2.2 0.8 0  2.4 0.8 0  2.6 0.8 0  2.8 0.8 0  3 0.8 0  3.2 0.8 0  3.4 0.8 0  3.6 0.8 0  3.8 0.8 0  4 0.8 0  4.2 0.8 0  4.4 0.8 0  4.6 0.8 0  4.8 0.8 0  5 0.8 0  5.2 0.8 0  5.4 0.8 0  5.6 0.8 0  5.8 0.8 0  6 0.8 0  6.2 0.8 0  6.4 0.8 0  6.6 0.8 0  6.8 0.8 0  7 0.8 0  7.2 0.8 0  7.4 0.8 0  7.6 0.8 0  7.8 0.8 0  8 0.8 0  8.199999999999999 0.8 0  8.4 0.8 0  8.6 0.8 0  8.800000000000001 0.8 0  9 0.8 0  9.199999999999999 0.8 0  9.4 0.8 0  9.6 0.8 0  9.800000000000001 0.8 0  10 0.8 0  0 1 0  0.2 1 0  0.4 1 0  0.6 1 0  0.8 1 0  1 1 0  1.2 1 0  1.4 1 0  1.6 1 0  1.8 1 0  2 1 0  2.2 1 0  2.4 1 0  2.6 1 0  2.8 1 0  3 1 0  3.2 1 0  3.4 1 0  3.6 1 0  3.8 1 0  4 1 0  4.2 1 0  4.4 1 0  4.6 1 0  4.8 1 0  5 1 0  5.2 1 0  5.4 1 0  5.6 1 0  5.8 1 0  6 1 0  6.2 1 0  6.4 1 0  6.6 1 0  6.8 1 0  7 1 0  7.2 1 0  7.4 1 0  7.6 1 0  7.8 1 0  8 1 0  8.199999999999999 1 0  8.4 1 0  8.6 1 0  8.800000000000001 1 0  9 1 0  9.199999999999999 1 0  9.4 1 0  9.6 1 0  9.800000000000001 1 0  10 1 0  0 1.2 0  0.2 1.2 0  0.4 1.2 0  0.6 1.2 0  0.8 1.2 0  1 1.2 0  1.2 1.2 0  1.4 1.2 0  1.6 1.2 0  1.8 1.2 0  2 1.2 0  2.2 1.2 0  2.4 1.2 0  2.6 1.2 0  2.8 1.2 0  3 1.2 0  3.2 1.2 0  3.4 1.2 0  3.6 1.2 0  3.8 1.2 0  4 1.2 0  4.2 1.2 0  4.4 1.2 0  4.6 1.2 0  4.8 1.2 0  5 1.2 0  5.2 1.2 0  5.4 1.2 0  5.6 1.2 0  5.8 1.2 0  6 1.2 0  6.2 1.2 0  6.4 1.2 0  6.6 1.2 0  6.8 1.2 0  7 1.2 0  7.2 1.2 0  7.4 1.2 0  7.6 1.2 0  7.8 1.2 0  8 1.2 0  8.199999999999999 1.2 0  8.4 1.2 0  8.6 1.2 0  8.800000000000001 1.2 0  9 1.2 0  9.199999999999999 1.2 0  9.4 1.2 0  9.6 1.2 0  9.800000000000001 1.2 0  10 1.2 0  0 1.4 0  0.2 1.4 0  0.4 1.4 0  0.6 1.4 0  0.8 1.4 0  1 1.4 0  1.2 1.4 0  1.4 1.4 0  1.6 1.4 0  1.8 1.4 0  2 1.4 0  2.2 1.4 0  2.4 1.4 0  2.6 1.4 0  2.8 1.4 0  3 1.4 0  3.2 1.4 0  3.4 1.4 0  3.6 1.4 0  3.8 1.4 0  4 1.4 0  4.2 1.4 0  4.4 1.4 0  4.6 1.4 0  4.8 1.4 0  5 1.4 0  5.2 1.4 0  5.4 1.4 0  5.6 1.4 0  5.8 1.4 0  6 1.4 0  6.2 1.4 0  6.4 1.4 0  6.6 1.4 0  6.8 1.4 0  7 1.4 0  7.2 1.4 0  7.4 1.4 0  7.6 1.4 0  7.8 1.4 0  8 1.4 0  8.199999999999999 1.4 0  8.4 1.4 0  8.6 1.4 0  8.800000000000001 1.4 0  9 1.4 0  9.199999999999999 1.4 0  9.4 1.4 0  9.6 1.4 0  9.800000000000001 1.4 0  10 1.4 0  0 1.6 0  0.2 1.6 0  0.4 1.6 0  0.6 1.6 0  0.8 1.6 0  1 1.6 0  1.2 1.6 0  1.4 1.6 0  1.6 1.6 0  1.8 1.6 0  2 1.6 0  2.2 1.6 0  2.4 1.6 0  2.6 1.6 0  2.8 1.6 0  3 1.6 0  3.2 1.6 0  3.4 1.6 0  3.6 1.6 0  3.8 1.6 0  4 1.6 0  4.2 1.6 0  4.4 1.6 0  4.6 1.6 0  4.8 1.6 0  5 1.6 0  5.2 1.6 0  5.4 1.6 0  5.6 1.6 0  5.8 1.6 0  6 1.6 0  6.2 1.6 0  6.4 1.6 0  6.6 1.6 0  6.8 1.6 0  7 1.6 0  7.2 1.6 0  7.4 1.6 0  7.6 1.6 0  7.8 1.6 0  8 1.6 0  8.199999999999999 1.6 0  8.4 1.6 0  8.6 1.6 0  8.800000000000001 1.6 0  9 1.6 0  9.199999999999999 1.6 0  9.4 1.6 0  9.6 1.6 0  9.800000000000001 1.6 0  10 1.6 0  0 1.8 0  0.2 1.8 0  0.4 1.8 0  0.6 1.8 0  0.8 1.8 0  1 1.8 0  1.2 1.8 0  1.4 1.8 0  1.6 1.8 0  1.8 1.8 0  2 1.8 0  2.2 1.8 0  2.4 1.8 0  2.6 1.8 0  2.8 1.8 0  3 1.8 0  3.2 1.8 0  3.4 1.8 0  3.6 1.8 0  3.8 1.8 0  4 1.8 0  4.2 1.8 0  4.4 1.8 0  4.6 1.8 0  4.8 1.8 0  5 1.8 0  5.2 1.8 0  5.4 1.8 0  5.6 1.8 0  5.8 1.8 0  6 1.8 0  6.2 1.8 0  6.4 1.8 0  6.6 1.8 0  6.8 1.8 0  7 1.8 0  7.2 1.8 0  7.4 1.8 0  7.6 1.8 0  7.8 1.8 0  8 1.8 0  8.199999999999999 1.8 0  8.4 1.8 0  8.6 1.8 0  8.800000000000001 1.8 0  9 1.8 0  9.199999999999999 1.8 0  9.4 1.8 0  9.6 1.8 0  9.800000000000001 1.8 0  10 1.8 0  0 2 0  0.2 2 0  0.4 2 0  0.6 2 0  0.8 2 0  1 2 0  1.2 2 0  1.4 2 0  1.6 2 0  1.8 2 0  2 2 0  2.2 2 0  2.4 2 0  2.6 2 0  2.8 2 0  3 2 0  3.2 2 0  3.4 2 0  3.6 2 0  3.8 2 0  4 2 0  4.2 2 0  4.4 2 0  4.6 2 0  4.8 2 0  5 2 0  5.2 2 0  5.4 2 0  5.6 2 0  5.8 2 0  6 2 0  6.2 2 0  6.4 2 0  6.6 2 0  6.8 2 0  7 2 0  7.2 2 0  7.4 2 0  7.6 2 0  7.8 2 0  8 2 0  8.199999999999999 2 0  8.4 2 0  8.6 2 0  8.800000000000001 2 0  9 2 0  9.199999999999999 2 0  9.4 2 0  9.6 2 0  9.800000000000001 2 0  10 2 0  0 2.2 0  0.2 2.2 0  0.4 2.2 0  0.6 2.2 0  0.8 2.2 0  1 2.2 0  1.2 2.2 0  1.4 2.2 0  1.6 2.2 0  1.8 2.2 0  2 2.2 0  2.2 2.2 0  2.4 2.2 0  2.6 2.2 0  2.8 2.2 0  3 2.2 0  3.2 2.2 0  3.4 2.2 0  3.6 2.2 0  3.8 2.2 0  4 2.2 0  4.2 2.2 0  4.4 2.2 0  4.6 2.2 0  4.8 2.2 0  5 2.2 0  5.2 2.2 0  5.4 2.2 0  5.6 2.2 0  5.8 2.2 0  6 2.2 0  6.2 2.2 0  6.4 2.2 0  6.6 2.2 0  6.8 2.2 0  7 2.2 0  7.2 2.2 0  7.4 2.2 0  7.6 2.2 0  7.8 2.2 0  8 2.2 0  8.199999999999999 2.2 0  8.4 2.2 0  8.6 2.2 0  8.800000000000001 2.2 0  9 2.2 0  9.199999999999999 2.2 0  9.4 2.2 0  9.6 2.2 0  9.800000000000001 2.2 0  10 2.2 0  0 2.4 0  0.2 2.4 0  0.4 2.4 0  0.6 2.4 0  0.8 2.4 0  1 2.4 0  1.2 2.4 0  1.4 2.4 0  1.6 2.4 0  1.8 2.4 0  2 2.4 0  2.2 2.4 0  2.4 2.4 0  2.6 2.4 0  2.8 2.4 0  3 2.4 0  3.2 2.4 0  3.4 2.4 0  3.6 2.4 0  3.8 2.4 0  4 2.4 0  4.2 2.4 0  4.4 2.4 0  4.6 2.4 0  4.8 2.4 0  5 2.4 0  5.2 2.4 0  5.4 2.4 0  5.6 2.4 0  5.8 2.4 0  6 2.4 0  6.2 2.4 0  6.4 2.4 0  6.6 2.4 0  6.8 2.4 0  7 2.4 0  7.2 2.4 0  7.4 2.4 0  7.6 2.4 0  7.8 2.4 0  8 2.4 0  8.199999999999999 2.4 0  8.4 2.4 0  8.6 2.4 0  8.800000000000001 2.4 0  9 2.4 0  9.199999999999999 2.4 0  9.4 2.4 0  9.6 2.4 0  9.800000000000001 2.4 0  10 2.4 0  0 2.6 0  0.2 2.6 0  0.4 2.6 0  0.6 2.6 0  0.8 2.6 0  1 2.6 0  1.2 2.6 0  1.4 2.6 0  1.6 2.6 0  1.8 2.6 0  2 2.6 0  2.2 2.6 0  2.4 2.6 0  2.6 2.6 0  2.8 2.6 0  3 2.6 0  3.2 2.6 0  3.4 2.6 0  3.6 2.6 0  3.8 2.6 0  4 2.6 0  4.2 2.6 0  4.4 2.6 0  4.6 2.6 0  4.8 2.6 0  5 2.6 0  5.2 2.6 0  5.4 2.6 0  5.6 2.6 0  5.8 2.6 0  6 2.6 0  6.2 2.6 0  6.4 2.6 0  6.6 2.6 0  6.8 2.6 0  7 2.6 0  7.2 2.6 0  7.4 2.6 0  7.6 2.6 0  7.8 2.6 0  8 2.6 0  8.199999999999999 2.6 0  8.4 2.6 0  8.6 2.6 0  8.800000000000001 2.6 0  9 2.6 0  9.199999999999999 2.6 0  9.4 2.6 0  9.6 2.6 0  9.800000000000001 2.6 0  10 2.6 0  0 2.8 0  0.2 2.8 0  0.4 2.8 0  0.6 2.8 0  0.8 2.8 0  1 2.8 0  1.2 2.8 0  1.4 2.8 0  1.6 2.8 0  1.8 2.8 0  2 2.8 0  2.2 2.8 0  2.4 2.8 0  2.6 2.8 0  2.8 2.8 0  3 2.8 0  3.2 2.8 0  3.4 2.8 0  3.6 2.8 0  3.8 2.8 0  4 2.8 0  4.2 2.8 0  4.4 2.8 0  4.6 2.8 0  4.8 2.8 0  5 2.8 0  5.2 2.8 0  5.4 2.8 0  5.6 2.8 0  5.8 2.8 0  6 2.8 0  6.2 2.8 0  6.4 2.8 0  6.6 2.8 0  6.8 2.8 0  7 2.8 0  7.2 2.8 0  7.4 2.8 0  7.6 2.8 0  7.8 2.8 0  8 2.8 0  8.199999999999999 2.8 0  8.4 2.8 0  8.6 2.8 0  8.800000000000001 2.8 0  9 2.8 0  9.199999999999999 2.8 0  9.4 2.8 0  9.6 2.8 0  9.800000000000001 2.8 0  10 2.8 0  0 3 0  0.2 3 0  0.4 3 0  0.6 3 0  0.8 3 0  1 3 0  1.2 3 0  1.4 3 0  1.6 3 0  1.8 3 0  2 3 0  2.2 3 0  2.4 3 0  2.6 3 0  2.8 3 0  3 3 0  3.2 3 0  3.4 3 0  3.6 3 0  3.8 3 0  4 3 0  4.2 3 0  4.4 3 0  4.6 3 0  4.8 3 0  5 3 0  5.2 3 0  5.4 3 0  5.6 3 0  5.8 3 0  6 3 0  6.2 3 0  6.4 3 0  6.6 3 0  6.8 3 0  7 3 0  7.2 3 0  7.4 3 0  7.6 3 0  7.8 3 0  8 3 0  8.199999999999999 3 0  8.4 3 0  8.6 3 0  8.800000000000001 3 0  9 3 0  9.199999999999999 3 0  9.4 3 0  9.6 3 0  9.800000000000001 3 0  10 3 0  0 3.2 0  0.2 3.2 0  0.4 3.2 0  0.6 3.2 0  0.8 3.2 0  1 3.2 0  1.2 3.2 0  1.4 3.2 0  1.6 3.2 0  1.8 3.2 0  2 3.2 0  2.2 3.2 0  2.4 3.2 0  2.6 3.2 0  2.8 3.2 0  3 3.2 0  3.2 3.2 0  3.4 3.2 0  3.6 3.2 0  3.8 3.2 0  4 3.2 0  4.2 3.2 0  4.4 3.2 0  4.6 3.2 0  4.8 3.2 0  5 3.2 0  5.2 3.2 0  5.4 3.2 0  5.6 3.2 0  5.8 3.2 0  6 3.2 0  6.2 3.2 0  6.4 3.2 0  6.6 3.2 0  6.8 3.2 0  7 3.2 0  7.2 3.2 0  7.4 3.2 0  7.6 3.2 0  7.8 3.2 0  8 3.2 0  8.199999999999999 3.2 0  8.4 3.2 0  8.6 3.2 0  8.800000000000001 3.2 0  9 3.2 0  9.199999999999999 3.2 0  9.4 3.2 0  9.6 3.2 0  9.800000000000001 3.2 0  10 3.2 0  0 3.4 0  0.2 3.4 0  0.4 3.4 0  0.6 3.4 0  0.8 3.4 0  1 
[...]
<PointData  Scalars="f_7"> 
<DataArray  type="Float64"  Name="f_7"  format="ascii">6.3523617273782606e-04  6.3592570169344962e-04  6.3649257558676868e-04  6.3691672391258749e-04  6.3717634274780880e-04  6.3724801117104280e-04  6.3710689640185066e-04  6.3672706418703168e-04  6.3608190938559432e-04  6.3514471819684718e-04  6.3388936760536390e-04  6.3229115912073351e-04  6.3032777270256011e-04  6.2798031324361810e-04  6.2523440692775192e-04  6.2208128959878692e-04  6.1851881587862668e-04  6.1455230853706795e-04  6.1019516503078776e-04  6.0546914439193165e-04  6.0040427412156997e-04  5.9503834336879021e-04  5.8941598357159454e-04  5.8358737707314375e-04  5.7760667257308201e-04  5.7153021751072774e-04  5.6541473603060688e-04  5.5931558343846617e-04  5.5328519345566732e-04  5.4737180586785525e-04  5.4161852490582714e-04  5.3606271979669601e-04  5.3073574494826969e-04  5.2566293285420912e-04  5.2086379998303944e-04  5.1635240392093270e-04  5.1213779620676444e-04  5.0822452612081363e-04  5.0461316282984184e-04  5.0130081429932837e-04  4.9828162990699890e-04  4.9554727940587348e-04  4.9308740415915711e-04  4.9089003811395417e-04  4.8894199653123991e-04  4.8722923067653879e-04  4.8573714686599211e-04  4.8445088866392748e-04  4.8335558165082899e-04  4.8243654097214136e-04  6.3694930945233836e-04  6.2415780115515618e-04  6.2248517399550571e-04  6.2030035533841251e-04  6.1753709289616963e-04  6.1412660846509785e-04  6.0999924542652574e-04  6.0508667445843508e-04  5.9932471295926534e-04  5.9265678418669269e-04  5.8503799668994732e-04  5.7643976141011041e-04  5.6685478286734765e-04  5.5630216512703352e-04  5.4483226982077941e-04  5.3253086437242132e-04  5.1952202076548462e-04  5.0596918969185185e-04  4.9207390398723217e-04  4.7807167798668323e-04  4.6422487580676533e-04  4.5081261638704176e-04  4.3811814130217616e-04  4.2641444698957026e-04  4.1594931403276516e-04  4.0693108498499292e-04  3.9951659137650792e-04  3.9380247876996070e-04  3.8982083304549172e-04  3.8753951984379220e-04  3.8686709350839736e-04  3.8766160790434560e-04  3.8974225708416136e-04  3.9290254853148319e-04  3.9692368533816516e-04  4.0158698568300711e-04  4.0668444786153755e-04  4.1202691200178433e-04  4.1744961256909497e-04  4.2281520987336873e-04  4.2801460506861928e-04  4.3296597261975112e-04  4.3761249367191849e-04  4.4191925983510475e-04  4.4586976000551978e-04  4.4946228276265490e-04  4.5270647983112626e-04  4.5562025366275026e-04  4.5822706135706945e-04  4.6055367104350656e-04  4.6262836582454994e-04  6.2620197170642090e-04  6.0835425323163344e-04  6.0333028433896374e-04  5.9721586201494598e-04  5.8986912465341197e-04  5.8114250208906606e-04  5.7088648578960987e-04  5.5895476705060117e-04  5.4521091033434910e-04  5.2953666387516756e-04  5.1184190226366403e-04  4.9207603857473903e-04  4.7024053358824322e-04  4.4640187118467027e-04  4.2070407781146180e-04  3.9337957038214735e-04  3.6475686791741734e-04  3.3526355927383013e-04  3.0542295221923805e-04  2.7584310292031263e-04  2.4719748135521415e-04  2.2019736435301650e-04  1.9555709829188609e-04  1.7395450256320731e-04  1.5598969915672865e-04  1.4214633503371635e-04  1.3275932144883327e-04  1.2799274132123997e-04  1.2783049281937751e-04  1.3208070406618726e-04  1.4039323938621186e-04  1.5228803616848288e-04  1.6719084342324089e-04  1.8447235636236445e-04  2.0348679610990921e-04  2.2360657870503715e-04  2.4425067051546737e-04  2.6490532144538996e-04  2.8513690592089263e-04  3.0459744347072237e-04  3.2302394428730018e-04  3.4023302265393749e-04  3.5611228060740136e-04  3.7060984816374496e-04  3.8372324284272416e-04  3.9548844049325227e-04  4.0596977756867883e-04  4.1525106198859622e-04  4.2342807120170604e-04  4.3060246667073800e-04  4.3687705103920440e-04  6.1078664268177476e-04  5.8678334738824535e-04  5.7715423751462350e-04  5.6560457209293513e-04  5.5187423365647107e-04  5.3568980201205887e-04  5.1677103439120296e-04  4.9484001258890417e-04  4.6963337041223832e-04  4.4091791516851175e-04  4.0850977031612538e-04  3.7229687146040123e-04  3.3226422956505894e-04  2.8852083247704922e-04  2.4132641080927442e-04  1.9111560251410277e-04  1.3851640869645441e-04  8.4359380123992257e-05  2.9673879544527724e-05  -2.4331796312177685e-05  -7.6308545394544673e-05  -1.2482314052969358e-04  -1.6843136459166223e-04  -2.0576281804865183e-04  -2.3561010895532304e-04  -2.5701336343038648e-04  -2.6933046924155639e-04  -2.7228449386411418e-04  -2.6598227767621991e-04  -2.5090189698892925e-04  -2.2785082787790047e-04  -1.9790040815284660e-04  -1.6230487959797570e-04  -1.2241446930896758e-04  -7.9591582949205188e-05  -3.5137519634171093e-05  9.7653198124840368e-06  5.4093413462007042e-05  9.7004364218211372e-05  1.3784331263012422e-04  1.7613655006763613e-04  2.1157583557035483e-04  2.4399685792948463e-04  2.7335486351321131e-04  2.9969985862625051e-04  3.2315313037359729e-04  3.4388620775686272e-04  3.6210286006035621e-04  3.7802432451619167e-04  3.9187766887869077e-04  4.0388701241645471e-04  5.8966894381705078e-04  5.5827071480122844e-04  5.4247047946044897e-04  5.2358896167864098e-04  5.0118730981758581e-04  4.7479821984826775e-04  4.4393554293045392e-04  4.0810852611810618e-04  3.6684157614873822e-04  3.1970032443531799e-04  2.6632450434888304e-04  2.0646767870860351e-04  1.4004313071967745e-04  6.7174230162638207e-05  -1.1753676222598819e-05  -9.6044245211793745e-05  -1.8464983956642845e-04  -2.7614700051940870e-04  -3.6873531174212455e-04  -4.6026681546163477e-04  -5.4831128121675399e-04  -6.3025918178940654e-04  -7.0345933764318080e-04  -7.6538242138994594e-04  -8.1379587225001025e-04  -8.4693154147363664e-04  -8.6362582290783272e-04  -8.6341393326954438e-04  -8.4656542945816204e-04  -8.1405610735310456e-04  -7.6748049817886965e-04  -7.0891734767309473e-04  -6.4076607561949208e-04  -5.6557433746969661e-04  -4.8587543090618631e-04  -4.0405019301652055e-04  -3.2222246179747753e-04  -2.4219142489645464e-04  -1.6539927199216912e-04  -9.2929091909106849e-05  -2.5526060154482984e-05  3.6365534723399296e-05  9.2556340541111626e-05  1.4306282020201737e-04  1.8805929166380072e-04  2.2783404877367650e-04  2.6275124710167580e-04  2.9321925934225280e-04  3.1966549598005006e-04  3.4251722361456873e-04  3.6218765094531022e-04  5.6168273709674473e-04  5.2151761702408340e-04  4.9761842235908750e-04  4.6904994335524714e-04  4.3511052264168156e-04  3.9504262262055837e-04  3.4804550746586138e-04  2.9329537989124997e-04  2.2997470984797058e-04  1.5731243415165243e-04  7.4636399304767130e-05  -1.8561242356517607e-05  -1.2254610106650156e-04  -2.3725318421080315e-04  -3.6219246887552961e-04  -4.9635555952945410e-04  -6.3813360556209118e-04  -7.8525945764064734e-04  -9.3478891145347799e-04  -1.0831359357292277e-03  -1.2261741141512000e-03  -1.3594105287807981e-03  -1.4782289868167200e-03  -1.5781877985295283e-03  -1.6553452597206303e-03  -1.7065763767938262e-03  -1.7298401069558733e-03  -1.7243595308737408e-03  -1.6906882463152404e-03  -1.6306530331811975e-03  -1.5471818657020130e-03  -1.4440432896348286e-03  -1.3255343486627269e-03  -1.1961577025355497e-03  -1.0603245630738964e-03  -9.2211060473504304e-04  -7.8508000121867941e-04  -6.5218103160957460e-04  -5.2570733259429329e-04  -4.0731282685479850e-04  -2.9806565157520885e-04  -1.9852642481367285e-04  -1.0883802272211040e-04  -2.8816807973528801e-05  4.1961761639243841e-05  1.0408747849523476e-04  1.5825178274256530e-04  2.0519665483725722e-04  2.4567533769369467e-04  2.8042357302906649e-04  3.1013973474850755e-04  5.2553775048175190e-04  4.7511838648863598e-04  4.4078124036501712e-04  3.9964320579670128e-04  3.5062516040755673e-04  2.9254552110174835e-04  2.2413497418697170e-04  1.4406249286739751e-04  5.0975788310179841e-05  -5.6440518907427296e-05  -1.7938593797588046e-04  -3.1884206715704160e-04  -4.7544675653506851e-04  -6.4934635957570490e-04  -8.4003175557259178e-04  -1.0461688154884568e-03  -1.2654398665489280e-03  -1.4944187438360027e-03  -1.7285069213302388e-03  -1.9619602088369451e-03  -2.1880325601856070e-03  -2.3992539438530643e-03  -2.5878423691323310e-03  -2.7462273752687344e-03  -2.8676373448727590e-03  -2.9466817706714893e-03  -2.9798486768354815e-03  -2.9658418460617357e-03  -2.9057036171933268e-03  -2.8027031016448311e-03  -2.6620087521991125e-03  -2.4901986053383423e-03  -2.2946831098435440e-03  -2.0831203724607397e-03  -1.8628930419761626e-03  -1.6406949478625333e-03  -1.4222506449238213e-03  -1.2121681463710683e-03  -1.0139081880694641e-03  -8.2984372140190005e-04  -6.6138036742612277e-04  -5.0911054489162012e-04  -3.7297886833481491e-04  -2.5244241130673993e-04  -1.4661526700597441e-04  -5.4391778717487941e-05  2.5453438166490895e-05  9.4187997415476381e-05  1.5306453481246771e-04  2.0328079803105632e-04  2.4595382677966457e-04  4.7983674447286566e-04  4.1758986097994831e-04  3.7001915511722903e-04  3.1283531004924981e-04  2.4442828506415049e-04  1.6301013514405857e-04  6.6629000371907463e-05  -4.6800733963444525e-05  -1.7944674979382318e-04  -3.3347960915922352e-04  -5.1095993349050447e-04  -7.1368645664931661e-04  -9.4300135308882386e-04  -1.1995529012365804e-03  -1.4830214481508716e-03  -1.7918230751028323e-03  -2.1228161401934671e-03  -2.4710480113420766e-03  -2.8295907052233575e-03  -3.1895214730055339e-03  -3.5401033283237854e-03  -3.8692068100452826e-03  -4.1639853186269931e-03  -4.4117733426098319e-03  -4.6011263833584080e-03  -4.7228753358480825e-03  -4.7710411550871291e-03  -4.7434601441673184e-03  -4.6420104038030520e-03  -4.4723986805065095e-03  -4.2435466244806694e-03  -3.9666847105086439e-03  -3.6543030925760308e-03  -3.3191138831001206e-03  -2.9731527921218952e-03  -2.6271020275422095e-03  -2.2898656588691735e-03  -1.9683854107688274e-03  -1.6676557731172918e-03  -1.3908835904757682e-03  -1.1397362885069717e-03  -9.1463026481339391e-04  -7.1502238630450298e-04  -5.3967964295173975e-04  -3.8691272304316093e-04  -2.5476763385446927e-04  -1.4117532589726732e-04  -4.4062879962382657e-05  3.8568328966681607e-05  1.0859145644600655e-04  1.6772413553596961e-04  4.2310457781564483e-04  3.4741508783652994e-04  2.8332166685082538e-04  2.0596468417047754e-04  1.1300170840082232e-04  1.7947882503859966e-06  -1.3058202297189491e-04  -2.8731325470644802e-04  -4.7178208565006507e-04  -6.8746969234731112e-04  -9.3780257882677585e-04  -1.2259364962179866e-03  -1.5544672690306263e-03  -1.9250633537144784e-03  -2.3380233865990668e-03  -2.7917753184700774e-03  -3.2823523687931810e-03  -3.8029040604813202e-03  -4.3433249983862660e-03  -4.8901040337462134e-03  -5.4265034607790062e-03  -5.9331620168196009e-03  -6.3891687222812155e-03  -6.7735757920707679e-03  -7.0672182961517456e-03  -7.2546094545083159e-03  -7.3256156505781718e-03  -7.2766141361701982e-03  -7.1109119000219070e-03  -6.8383427100424405e-03  -6.4741226744206345e-03  -6.0371842528339666e-03  -5.5482856199279918e-03  -5.0281922857243651e-03  -4.4961634117689254e-03  -3.9688761369892217e-03  -3.4598200939054001e-03  -2.9791150551513284e-03  -2.5336577843285833e-03  -2.1274884082103942e-03  -1.7622738443563014e-03  -1.4378259705767971e-03  -1.1525966937300954e-03  -9.0411506807125354e-04  -6.8935014651539870e-04  -5.0499646158874505e-04  -3.4768734680174277e-04  -2.1414572807794302e-04  -1.0128366531738112e-04  -6.2618064681486849e-06  7.3481192500244826e-05  3.5383143787035004e-04  2.6310318598004077e-04  1.7868184606456740e-04  7.6332475940204023e-05  -4.7279034439929958e-05  -1.9595977704836158e-04  -3.7399907872642785e-04  -5.8615000586479369e-04  -8.3756992194435401e-04  -1.1337036380669374e-03  -1.4800896757097941e-03  -1.8820681673399767e-03  -2.3443691984263802e-03  -2.8705647227610272e-03  -3.4623778357719174e-03  -4.1188626490363525e-03  -4.8354982577571851e-03  -5.6032815452227618e-03  -6.4079524259424737e-03  -7.2295325543618293e-03  -8.0423886379028860e-03  -8.8160228754398228e-03  -9.5167243966055148e-03  -1.0110076284609689e-02  -1.0564115672357989e-02  -1.0852733853587876e-02  -1.0958749426489400e-02  -1.0876061786437635e-02  -1.0610432305618631e-02  -1.0178722036884441e-02  -9.6067528076340131e-03  -8.9262422509893500e-03  -8.1714061989846942e-03  -7.3757979349982064e-03  -6.5697998501133663e-03  -5.7789712290461951e-03  -5.0232573880256261e-03  -4.3169253376325097e-03  -3.6690225420356022e-03  -3.0841472614815701e-03  -2.5633496855582884e-03  -2.1050309011053890e-03  -1.7057557305510929e-03  -1.3609366406030104e-03  -1.0653759627027980e-03  -8.1367289241763663e-04  -6.0051218831576336e-04  -4.2085567820612866e-04  -2.7005787707626988e-04  -1.4392499459267344e-04  -3.8733590004538840e-05  2.7053211897392531e-04  1.6326648309274202e-04  5.4194935694135966e-05  -7.8672656794905133e-05  -2.3998876573804744e-04  -4.3513883341082755e-04  -6.7028440791621539e-04  -9.5237400492017242e-04  -1.2891025796309325e-03  -1.6887944571943689e-03  -2.1601780929340285e-03  -2.7120150817870081e-03  -3.3525421718907382e-03  -4.0886865075537094e-03  -4.9250250551729751e-03  -5.8624844206787083e-03  -6.8968226329437273e-03  -8.0170038288836405e-03  -9.2036687219255401e-03  -1.0428006560163443e-02  -1.1651421097383659e-02  -1.2826410642588933e-02  -1.3898998664902568e-02  -1.4812817343782484e-02  -1.5514567021076746e-02  -1.5960127761614210e-02  -1.6120235533367212e-02  -1.5984528028935557e-02  -1.5563020686046038e-02  -1.4884653150027337e-02  -1.3993258213473518e-02  -1.2941889886909367e-02  -1.1786708767302338e-02  -1.0581518223411156e-02  -9.3736798026250387e-03  -8.2016858557641108e-03  -7.0942848485236491e-03  -6.0708196981555359e-03  -5.1423566869276890e-03  -4.3132116379202539e-03  -3.5825682691302111e-03  -2.9459872419595910e-03  -2.3966965015323675e-03  -1.9266225868817292e-03  -1.5271675082311875e-03  -1.1897606088946495e-03  -9.0622522349255875e-04  -6.6900120229728018e-04  -4.7126060120206750e-04  -3.0694785562915348e-04  -1.7076929829341113e-04  1.7182246998069683e-04  4.6714813879181369e-05  -9.1818015818313436e-05  -2.6141355724679103e-04  -4.6844487088377871e-04  -7.2038850325878542e-04  -1.0259281573495092e-03  -1.3950255682525974e-03  -1.8389325120361018e-03  -2.3701076687278407e-03  -3.0019899267977723e-03  -3.7485665568471865e-03  -4.6236626153130745e-03  -5.6398709864694738e-03  -6.8070473089773360e-03  -8.1303204963526030e-03  -9.6076302272908587e-03  -1.1226910504527367e-02  -1.2963200302551275e-02  -1.4776169351170376e-02  -1.6608760038609560e-02  -1.8387784904076932e-02  -2.0027266315187843e-02  -2.1434943727178902e-02  -2.2521661844604052e-02  -2.3212409284482229e-02  -2.3456917741984631e-02  -2.3237376925791819e-02  -2.2571273932431624e-02  -2.1508581853842731e-02  -2.0124057162599438e-02  -1.8506633652747056e-02  -1.6748367598995131e-02  -1.4935038429606929e-02  -1.3139643674283275e-02  -1.1419073645259433e-02  -9.8135329678951232e-03  -8.3479142580223601e-03  -7.0342795714640931e-03  -5.8747477661555579e-03  -4.8643017138911577e-03  -3.9932374836887802e-03  -3.2491393878071781e-03  -2.6183716930932941e-03  -2.0871375232542535e-03  -1.6421811552220745e-03  -1.2712142200563541e-03  -9.6313907475441989e-04  -7.0813043128718875e-04  -4.9762316909490940e-04  -3.2424218287359547e-04  5.6512913130569649e-05  -8.7434867899943784e-05  -2.6066306632040301e-04  -4.7380808754886360e-04  -7.3544639801002289e-04  -1.0557720185182592e-03  -1.4468001188881973e-03  -1.9225456219988978e-03  -2.4991437544995740e-03  -3.1948635462672190e-03  -4.0299447057907598e-03  -5.0261633344826449e-03  -6.2060044135615975e-03  -7.5912936050888400e-03  -9.2011270482142814e-03  -1.1048951657494916e-02  -1.3138714274197820e-02  -1.5460147084382082e-02  -1.7983519404351594e-02  -2.0654573205897996e-02  -2.3390830928651355e-02  -2.6080887762418566e-02  -2.8588434052579218e-02  -3.0762288510732243e-02  -3.2452441821715083e-02  -3.3530131582320662e-02  -3.3907929720885806e-02  -3.3554748981742190e-02  -3.2501432979393410e-02  -3.0835206412453204e-02  -2.8684672883109354e-02  -2.6199692029081036e-02  -2.3531258209447879e-02  -2.0815433811667991e-02  -1.8163330482457874e-02  -1.5657128897628148e-02  -1.3350835219626296e-02  -1.1274010417112670e-02  -9.4368519377010813e-03  -7.8354399870057267e-03  -6.4564368417066430e-03  -5.2809159379632042e-03  -4.2872588782751301e-03  -3.4532055150731920e-03  -2.7572062461850462e-03  -2.1792381604730888e-03  -1.7012320476889257e-03  -1.3072315583898340e-03  -9.8337820652329828e-04  -7.1779102474942469e-04  -5.0038924901476460e-04  -7.6282780825960990e-05  -2.3963762306338085e-04  -4.5310749480357735e-04  -7.1710208399967967e-04  -1.0429644879757082e-03  -1.4443498073505811e-03  -1.9375840836844125e-03  -2.5420207914028255e-03  -3.2803568937001038e-03  -4.1788475197515485e-03  -5.2673263921902075e-03  -6.5788967429714984e-03  -8.1491046274147910e-03  -1.0014346866138443e-02  -1.2209209884517246e-02  -1.4762406068539817e-02  -1.7691011557197218e-02  -2.0992876653142041e-02  -2.4637458424798163e-02  -2.8555988789184160e-02  -3.2632845948417318e-02  -3.6701075751012953e-02  -4.0545762886130876e-02  -4.3918641866364183e-02  -4.6565210163941134e-02  -4.8261521029857875e-02  -4.8852965944535531e-02  -4.8284207473199794e-02  -4.6610509425921209e-02  -4.3986483205762802e-02  -4.0636139087895817e-02  -3.6813995512805057e-02  -3.2768169488471596e-02  -2.8713221375797314e-02  -2.4815596365329734e-02  -2.1190361772054512e-02  -1.7905795633021231e-02  -1.4992089945981869e-02  -1.2451211754694753e-02  -1.0266062462151580e-02  -8.4080371842873911e-03  -6.8427485199868974e-03  -5.5340530850085563e-03  -4.4466818674455599e-03  -3.5478094015217502e-03  -2.8078651144018657e-03  -2.2008333187030970e-03  -1.7042283988722799e-03  -1.2988790248207036e-03  -9.6861309590589879e-04  -6.9990347789817393e-04  -2.2702746922503690e-04  -4.0979503876366390e-04  -6.6920353139102487e-04  -9.9162209391070099e-04  -1.3917962636644081e-03  -1.8876965307093271e-03  -2.5011068886665955e-03  -3.2582569896730936e-03  -4.1904606811403924e-03  -5.3346935261686882e-03  -6.7339966833753822e-03  -8.4375293540463817e-03  -1.0500002414359246e-02  -1.2980110291319258e-02  -1.5937443175877610e-02  -1.9427231317490194e-02  -2.3492203614194008e-02  -2.8150941212302362e-02  -3.3382545928867684e-02  -3.9108446904995077e-02  -4.5173923798289384e-02  -5.1334361421541824e-02  -5.7253690150003228e-02  -6.2523325607902053e-02  -6.6706983257364752e-02  -6.9408585984108484e-02  -7.0348817087332580e-02  -6.9426709152523108e-02  -6.6743450339399407e-02  -6.2578773281105976e-02  -5.7329300390119381e-02  -5.1431689398491028e-02  -4.5294440945821322e-02  -3.9253020350574881e-02  -3.3551081595099175e-02  -2.8342289395587653e-02  -2.3704294135480933e-02  -1.9657340736657741e-02  -1.6182496118618363e-02  -1.3236948179897472e-02  -1.0765588075074949e-02  -8.7090819010751542e-03  -7.0090654833133417e-03  -5.6111855707296453e-03  -4.4666359086122948e-03  -3.5327038246983351e-03  -2.7727072714195606e-03  -2.1555868803804458e-03  -1.6553285226401267e-03  -1.2503272904277763e-03  -9.2275911049108524e-04  -3.9563592598640233e-04  -5.9713444655286134e-04  -9.0811424033822015e-04  -1.2965244930090887e-03  -1.7812036838403297e-03  -2.3853820535096604e-03  -3.1375943636984412e-03  -4.0727167749215875e-03  -5.2331025781286880e-03  -6.6697562736509671e-03  -8.4434279709617813e-03  -1.0625419931427493e-02  -1.3297761381977065e-02  -1.6552212887766732e-02  -2.0487298993425510e-02  -2.5202247268767561e-02  -3.0786388022522058e-02  -3.7302387156399219e-02  -4.4761944381455844e-02  -5.3093796531549872e-02  -6.2106684380720228e-02  -7.1454852149659701e-02  -8.0620099264116354e-02  -8.8929538478720302e-02  -9.5626292068136567e-02  -9.9995234010872833e-02  -1.0151798751309742e-01  -1.0000453385280574e-01  -9.5645504486165864e-02  -8.8960485607979617e-02  -8.0666203724574587e-02  -7.1520680504925493e-02  -6.2196796905977438e-02  -5.3211553257531942e-02  -4.4908794042425627e-02  -3.7477767355693123e-02  -3.0988071386886740e-02  -2.5426885789354266e-02  -2.0730971585318284e-02  -1.6810871112364300e-02  -1.3567541047776214e-02  -1.0902828396788918e-02  -8.7254342449398919e-03  -6.95381349