<?xml version="1.0"?>
<VTKFile type="UnstructuredGrid"  version="0.1"  >
<UnstructuredGrid>
<Piece  NumberOfPoints="5101" NumberOfCells="10000">
<Points>
<DataArray  type="Float64"  NumberOfComponents="3"  format="ascii">0 0 0  0.2 0 0  0.4 0 0  0.6 0 0  0.8 0 0  1 0 0  1.2 0 0  1.4 0 0  1.6 0 0  1.8 0 0  2 0 0  2.2 0 0  2.4 0 0  2.6 0 0  2.8 0 0  3 0 0  3.2 0 0  3.4 0 0  3.6 0 0  3.8 0 0  4 0 0  4.2 0 0  4.4 0 0  4.6 0 0  4.8 0 0  5 0 0  5.2 0 0  5.4 0 0  5.6 0 0  5.8 0 0  6 0 0  6.2 0 0  6.4 0 0  6.6 0 0  6.8 0 0  7 0 0  7.2 0 0  7.4 0 0  7.6 0 0  7.8 0 0  8 0 0  8.199999999999999 0 0  8.4 0 0  8.6 0 0  8.800000000000001 0 0  9 0 0  9.199999999999999 0 0  9.4 0 0  9.6 0 0  9.800000000000001 0 0  10 0 0  0 0.2 0  0.2 0.2 0  0.4 0.2 0  0.6 0.2 0  0.8 0.2 0  1 0.2 0  1.2 0.2 0  1.4 0.2 0  1.6 0.2 0  1.8 0.2 0  2 0.2 0  2.2 0.2 0  2.4 0.2 0  2.6 0.2 0  2.8 0.2 0  3 0.2 0  3.2 0.2 0  3.4 0.2 0  3.6 0.2 0  3.8 0.2 0  4 0.2 0  4.2 0.2 0  4.4 0.2 0  4.6 0.2 0  4.8 0.2 0  5 0.2 0  5.2 0.2 0  5.4 0.2 0  5.6 0.2 0  5.8 0.2 0  6 0.2 0  6.2 0.2 0  6.4 0.2 0  6.6 0.2 0  6.8 0.2 0  7 0.2 0  7.2 0.2 0  7.4 0.2 0  7.6 0.2 0  7.8 0.2 0  8 0.2 0  8.199999999999999 0.2 0  8.4 0.2 0  8.6 0.2 0  8.800000000000001 0.2 0  9 0.2 0  9.199999999999999 0.2 0  9.4 0.2 0  9.6 0.2 0  9.800000000000001 0.2 0  10 0.2 0  0 0.4 0  0.2 0.4 0  0.4 0.4 0  0.6 0.4 0  0.8 0.4 0  1 0.4 0  1.2 0.4 0  1.4 0.4 0  1.6 0.4 0  1.8 0.4 0  2 0.4 0  2.2 0.4 0  2.4 0.4 0  2.6 0.4 0  2.8 0.4 0  3 0.4 0  3.2 0.4 0  3.4 0.4 0  3.6 0.4 0  3.8 0.4 0  4 0.4 0  4.2 0.4 0  4.4 0.4 0  4.6 0.4 0  4.8 0.4 0  5 0.4 0  5.2 0.4 0  5.4 0.4 0  5.6 0.4 0  5.8 0.4 0  6 0.4 0  6.2 0.4 0  6.4 0.4 0  6.6 0.4 0  6.8 0.4 0  7 0.4 0  7.2 0.4 0  7.4 0.4 0  7.6 0.4 0  7.8 0.4 0  8 0.4 0  8.199999999999999 0.4 0  8.4 0.4 0  8.6 0.4 0  8.800000000000001 0.4 0  9 0.4 0  9.199999999999999 0.4 0  9.4 0.4 0  9.6 0.4 0  9.800000000000001 0.4 0  10 0.4 0  0 0.6 0  0.2 0.6 0  0.4 0.6 0  0.6 0.6 0  0.8 0.6 0  1 0.6 0  1.2 0.6 0  1.4 0.6 0  1.6 0.6 0  1.8 0.6 0  2 0.6 0  2.2 0.6 0  2.4 0.6 0  2.6 0.6 0  2.8 0.6 0  3 0.6 0  3.2 0.6 0  3.4 0.6 0  3.6 0.6 0  3.8 0.6 0  4 0.6 0  4.2 0.6 0  4.4 0.6 0  4.6 0.6 0  4.8 0.6 0  5 0.6 0  5.2 0.6 0  5.4 0.6 0  5.6 0.6 0  5.8 0.6 0  6 0.6 0  6.2 0.6 0  6.4 0.6 0  6.6 0.6 0  6.8 0.6 0  7 0.6 0  7.2 0.6 0  7.4 0.6 0  7.6 0.6 0  7.8 0.6 0  8 0.6 0  8.199999999999999 0.6 0  8.4 0.6 0  8.6 0.6 0  8.800000000000001 0.6 0  9 0.6 0  9.199999999999999 0.6 0  9.4 0.6 0  9.6 0.6 0  9.800000000000001 0.6 0  10 0.6 0  0 0.8 0  0.2 0.8 0  0.4 0.8 0  0.6 0.8 0  0.8 0.8 0  1 0.8 0  1.2 0.8 0  1.4 0.8 0  1.6 0.8 0  1.8 0.8 0  2 0.8 0  2.2 0.8 0  2.4 0.8 0  2.6 0.8 0  2.8 0.8 0  3 0.8 0  3.2 0.8 0  3.4 0.8 0  3.6 0.8 0  3.8 0.8 0  4 0.8 0  4.2 0.8 0  4.4 0.8 0  4.6 0.8 0  4.8 0.8 0  5 0.8 0  5.2 0.8 0  5.4 0.8 0  5.6 0.8 0  5.8 0.8 0  6 0.8 0  6.2 0.8 0  6.4 0.8 0  6.6 0.8 0  6.8 0.8 0  7 0.8 0  7.2 0.8 0  7.4 0.8 0  7.6 0.8 0  7.8 0.8 0  8 0.8 0  8.199999999999999 0.8 0  8.4 0.8 0  8.6 0.8 0  8.800000000000001 0.8 0  9 0.8 0  9.199999999999999 0.8 0  9.4 0.8 0  9.6 0.8 0  9.800000000000001 0.8 0  10 0.8 0  0 1 0  0.2 1 0  0.4 1 0  0.6 1 0  0.8 1 0  1 1 0  1.2 1 0  1.4 1 0  1.6 1 0  1.8 1 0  2 1 0  2.2 1 0  2.4 1 0  2.6 1 0  2.8 1 0  3 1 0  3.2 1 0  3.4 1 0  3.6 1 0  3.8 1 0  4 1 0  4.2 1 0  4.4 1 0  4.6 1 0  4.8 1 0  5 1 0  5.2 1 0  5.4 1 0  5.6 1 0  5.8 1 0  6 1 0  6.2 1 0  6.4 1 0  6.6 1 0  6.8 1 0  7 1 0  7.2 1 0  7.4 1 0  7.6 1 0  7.8 1 0  8 1 0  8.199999999999999 1 0  8.4 1 0  8.6 1 0  8.800000000000001 1 0  9 1 0  9.199999999999999 1 0  9.4 1 0  9.6 1 0  9.800000000000001 1 0  10 1 0  0 1.2 0  0.2 1.2 0  0.4 1.2 0  0.6 1.2 0  0.8 1.2 0  1 1.2 0  1.2 1.2 0  1.4 1.2 0  1.6 1.2 0  1.8 1.2 0  2 1.2 0  2.2 1.2 0  2.4 1.2 0  2.6 1.2 0  2.8 1.2 0  3 1.2 0  3.2 1.2 0  3.4 1.2 0  3.6 1.2 0  3.8 1.2 0  4 1.2 0  4.2 1.2 0  4.4 1.2 0  4.6 1.2 0  4.8 1.2 0  5 1.2 0  5.2 1.2 0  5.4 1.2 0  5.6 1.2 0  5.8 1.2 0  6 1.2 0  6.2 1.2 0  6.4 1.2 0  6.6 1.2 0  6.8 1.2 0  7 1.2 0  7.2 1.2 0  7.4 1.2 0  7.6 1.2 0  7.8 1.2 0  8 1.2 0  8.199999999999999 1.2 0  8.4 1.2 0  8.6 1.2 0  8.800000000000001 1.2 0  9 1.2 0  9.199999999999999 1.2 0  9.4 1.2 0  9.6 1.2 0  9.800000000000001 1.2 0  10 1.2 0  0 1.4 0  0.2 1.4 0  0.4 1.4 0  0.6 1.4 0  0.8 1.4 0  1 1.4 0  1.2 1.4 0  1.4 1.4 0  1.6 1.4 0  1.8 1.4 0  2 1.4 0  2.2 1.4 0  2.4 1.4 0  2.6 1.4 0  2.8 1.4 0  3 1.4 0  3.2 1.4 0  3.4 1.4 0  3.6 1.4 0  3.8 1.4 0  4 1.4 0  4.2 1.4 0  4.4 1.4 0  4.6 1.4 0  4.8 1.4 0  5 1.4 0  5.2 1.4 0  5.4 1.4 0  5.6 1.4 0  5.8 1.4 0  6 1.4 0  6.2 1.4 0  6.4 1.4 0  6.6 1.4 0  6.8 1.4 0  7 1.4 0  7.2 1.4 0  7.4 1.4 0  7.6 1.4 0  7.8 1.4 0  8 1.4 0  8.199999999999999 1.4 0  8.4 1.4 0  8.6 1.4 0  8.800000000000001 1.4 0  9 1.4 0  9.199999999999999 1.4 0  9.4 1.4 0  9.6 1.4 0  9.800000000000001 1.4 0  10 1.4 0  0 1.6 0  0.2 1.6 0  0.4 1.6 0  0.6 1.6 0  0.8 1.6 0  1 1.6 0  1.2 1.6 0  1.4 1.6 0  1.6 1.6 0  1.8 1.6 0  2 1.6 0  2.2 1.6 0  2.4 1.6 0  2.6 1.6 0  2.8 1.6 0  3 1.6 0  3.2 1.6 0  3.4 1.6 0  3.6 1.6 0  3.8 1.6 0  4 1.6 0  4.2 1.6 0  4.4 1.6 0  4.6 1.6 0  4.8 1.6 0  5 1.6 0  5.2 1.6 0  5.4 1.6 0  5.6 1.6 0  5.8 1.6 0  6 1.6 0  6.2 1.6 0  6.4 1.6 0  6.6 1.6 0  6.8 1.6 0  7 1.6 0  7.2 1.6 0  7.4 1.6 0  7.6 1.6 0  7.8 1.6 0  8 1.6 0  8.199999999999999 1.6 0  8.4 1.6 0  8.6 1.6 0  8.800000000000001 1.6 0  9 1.6 0  9.199999999999999 1.6 0  9.4 1.6 0  9.6 1.6 0  9.800000000000001 1.6 0  10 1.6 0  0 1.8 0  0.2 1.8 0  0.4 1.8 0  0.6 1.8 0  0.8 1.8 0  1 1.8 0  1.2 1.8 0  1.4 1.8 0  1.6 1.8 0  1.8 1.8 0  2 1.8 0  2.2 1.8 0  2.4 1.8 0  2.6 1.8 0  2.8 1.8 0  3 1.8 0  3.2 1.8 0  3.4 1.8 0  3.6 1.8 0  3.8 1.8 0  4 1.8 0  4.2 1.8 0  4.4 1.8 0  4.6 1.8 0  4.8 1.8 0  5 1.8 0  5.2 1.8 0  5.4 1.8 0  5.6 1.8 0  5.8 1.8 0  6 1.8 0  6.2 1.8 0  6.4 1.8 0  6.6 1.8 0  6.8 1.8 0  7 1.8 0  7.2 1.8 0  7.4 1.8 0  7.6 1.8 0  7.8 1.8 0  8 1.8 0  8.199999999999999 1.8 0  8.4 1.8 0  8.6 1.8 0  8.800000000000001 1.8 0  9 1.8 0  9.199999999999999 1.8 0  9.4 1.8 0  9.6 1.8 0  9.800000000000001 1.8 0  10 1.8 0  0 2 0  0.2 2 0  0.4 2 0  0.6 2 0  0.8 2 0  1 2 0  1.2 2 0  1.4 2 0  1.6 2 0  1.8 2 0  2 2 0  2.2 2 0  2.4 2 0  2.6 2 0  2.8 2 0  3 2 0  3.2 2 0  3.4 2 0  3.6 2 0  3.8 2 0  4 2 0  4.2 2 0  4.4 2 0  4.6 2 0  4.8 2 0  5 2 0  5.2 2 0  5.4 2 0  5.6 2 0  5.8 2 0  6 2 0  6.2 2 0  6.4 2 0  6.6 2 0  6.8 2 0  7 2 0  7.2 2 0  7.4 2 0  7.6 2 0  7.8 2 0  8 2 0  8.199999999999999 2 0  8.4 2 0  8.6 2 0  8.800000000000001 2 0  9 2 0  9.199999999999999 2 0  9.4 2 0  9.6 2 0  9.800000000000001 2 0  10 2 0  0 2.2 0  0.2 2.2 0  0.4 2.2 0  0.6 2.2 0  0.8 2.2 0  1 2.2 0  1.2 2.2 0  1.4 2.2 0  1.6 2.2 0  1.8 2.2 0  2 2.2 0  2.2 2.2 0  2.4 2.2 0  2.6 2.2 0  2.8 2.2 0  3 2.2 0  3.2 2.2 0  3.4 2.2 0  3.6 2.2 0  3.8 2.2 0  4 2.2 0  4.2 2.2 0  4.4 2.2 0  4.6 2.2 0  4.8 2.2 0  5 2.2 0  5.2 2.2 0  5.4 2.2 0  5.6 2.2 0  5.8 2.2 0  6 2.2 0  6.2 2.2 0  6.4 2.2 0  6.6 2.2 0  6.8 2.2 0  7 2.2 0  7.2 2.2 0  7.4 2.2 0  7.6 2.2 0  7.8 2.2 0  8 2.2 0  8.199999999999999 2.2 0  8.4 2.2 0  8.6 2.2 0  8.800000000000001 2.2 0  9 2.2 0  9.199999999999999 2.2 0  9.4 2.2 0  9.6 2.2 0  9.800000000000001 2.2 0  10 2.2 0  0 2.4 0  0.2 2.4 0  0.4 2.4 0  0.6 2.4 0  0.8 2.4 0  1 2.4 0  1.2 2.4 0  1.4 2.4 0  1.6 2.4 0  1.8 2.4 0  2 2.4 0  2.2 2.4 0  2.4 2.4 0  2.6 2.4 0  2.8 2.4 0  3 2.4 0  3.2 2.4 0  3.4 2.4 0  3.6 2.4 0  3.8 2.4 0  4 2.4 0  4.2 2.4 0  4.4 2.4 0  4.6 2.4 0  4.8 2.4 0  5 2.4 0  5.2 2.4 0  5.4 2.4 0  5.6 2.4 0  5.8 2.4 0  6 2.4 0  6.2 2.4 0  6.4 2.4 0  6.6 2.4 0  6.8 2.4 0  7 2.4 0  7.2 2.4 0  7.4 2.4 0  7.6 2.4 0  7.8 2.4 0  8 2.4 0  8.199999999999999 2.4 0  8.4 2.4 0  8.6 2.4 0  8.800000000000001 2.4 0  9 2.4 0  9.199999999999999 2.4 0  9.4 2.4 0  9.6 2.4 0  9.800000000000001 2.4 0  10 2.4 0  0 2.6 0  0.2 2.6 0  0.4 2.6 0  0.6 2.6 0  0.8 2.6 0  1 2.6 0  1.2 2.6 0  1.4 2.6 0  1.6 2.6 0  1.8 2.6 0  2 2.6 0  2.2 2.6 0  2.4 2.6 0  2.6 2.6 0  2.8 2.6 0  3 2.6 0  3.2 2.6 0  3.4 2.6 0  3.6 2.6 0  3.8 2.6 0  4 2.6 0  4.2 2.6 0  4.4 2.6 0  4.6 2.6 0  4.8 2.6 0  5 2.6 0  5.2 2.6 0  5.4 2.6 0  5.6 2.6 0  5.8 2.6 0  6 2.6 0  6.2 2.6 0  6.4 2.6 0  6.6 2.6 0  6.8 2.6 0  7 2.6 0  7.2 2.6 0  7.4 2.6 0  7.6 2.6 0  7.8 2.6 0  8 2.6 0  8.199999999999999 2.6 0  8.4 2.6 0  8.6 2.6 0  8.800000000000001 2.6 0  9 2.6 0  9.199999999999999 2.6 0  9.4 2.6 0  9.6 2.6 0  9.800000000000001 2.6 0  10 2.6 0  0 2.8 0  0.2 2.8 0  0.4 2.8 0  0.6 2.8 0  0.8 2.8 0  1 2.8 0  1.2 2.8 0  1.4 2.8 0  1.6 2.8 0  1.8 2.8 0  2 2.8 0  2.2 2.8 0  2.4 2.8 0  2.6 2.8 0  2.8 2.8 0  3 2.8 0  3.2 2.8 0  3.4 2.8 0  3.6 2.8 0  3.8 2.8 0  4 2.8 0  4.2 2.8 0  4.4 2.8 0  4.6 2.8 0  4.8 2.8 0  5 2.8 0  5.2 2.8 0  5.4 2.8 0  5.6 2.8 0  5.8 2.8 0  6 2.8 0  6.2 2.8 0  6.4 2.8 0  6.6 2.8 0  6.8 2.8 0  7 2.8 0  7.2 2.8 0  7.4 2.8 0  7.6 2.8 0  7.8 2.8 0  8 2.8 0  8.199999999999999 2.8 0  8.4 2.8 0  8.6 2.8 0  8.800000000000001 2.8 0  9 2.8 0  9.199999999999999 2.8 0  9.4 2.8 0  9.6 2.8 0  9.800000000000001 2.8 0  10 2.8 0  0 3 0  0.2 3 0  0.4 3 0  0.6 3 0  0.8 3 0  1 3 0  1.2 3 0  1.4 3 0  1.6 3 0  1.8 3 0  2 3 0  2.2 3 0  2.4 3 0  2.6 3 0  2.8 3 0  3 3 0  3.2 3 0  3.4 3 0  3.6 3 0  3.8 3 0  4 3 0  4.2 3 0  4.4 3 0  4.6 3 0  4.8 3 0  5 3 0  5.2 3 0  5.4 3 0  5.6 3 0  5.8 3 0  6 3 0  6.2 3 0  6.4 3 0  6.6 3 0  6.8 3 0  7 3 0  7.2 3 0  7.4 3 0  7.6 3 0  7.8 3 0  8 3 0  8.199999999999999 3 0  8.4 3 0  8.6 3 0  8.800000000000001 3 0  9 3 0  9.199999999999999 3 0  9.4 3 0  9.6 3 0  9.800000000000001 3 0  10 3 0  0 3.2 0  0.2 3.2 0  0.4 3.2 0  0.6 3.2 0  0.8 3.2 0  1 3.2 0  1.2 3.2 0  1.4 3.2 0  1.6 3.2 0  1.8 3.2 0  2 3.2 0  2.2 3.2 0  2.4 3.2 0  2.6 3.2 0  2.8 3.2 0  3 3.2 0  3.2 3.2 0  3.4 3.2 0  3.6 3.2 0  3.8 3.2 0  4 3.2 0  4.2 3.2 0  4.4 3.2 0  4.6 3.2 0  4.8 3.2 0  5 3.2 0  5.2 3.2 0  5.4 3.2 0  5.6 3.2 0  5.8 3.2 0  6 3.2 0  6.2 3.2 0  6.4 3.2 0  6.6 3.2 0  6.8 3.2 0  7 3.2 0  7.2 3.2 0  7.4 3.2 0  7.6 3.2 0  7.8 3.2 0  8 3.2 0  8.199999999999999 3.2 0  8.4 3.2 0  8.6 3.2 0  8.800000000000001 3.2 0  9 3.2 0  9.199999999999999 3.2 0  9.4 3.2 0  9.6 3.2 0  9.800000000000001 3.2 0  10 3.2 0  0 3.4 0  0.2 3.4 0  0.4 3.4 0  0.6 3.4 0  0.8 3.4 0  1 
[...]
<PointData  Scalars="f_9"> 
<DataArray  type="Float64"  Name="f_9"  format="ascii">-8.4242686669386158e-03  -4.1206212148364105e-03  -2.2111663669459494e-03  -1.6654420808691396e-03  -1.1788902748783364e-03  -8.9279068444735662e-04  -6.7217892254782833e-04  -5.1606942232557368e-04  -3.9774796772746869e-04  -3.0889084596711210e-04  -2.4086338706954822e-04  -1.8856490845846731e-04  -1.4804224684546998e-04  -1.1648645508830527e-04  -9.1787995932079679e-05  -7.2366762194286382e-05  -5.7020948882504234e-05  -4.4829399957599524e-05  -3.5079419864497466e-05  -2.7214445941098834e-05  -2.0795074840178576e-05  -1.5469631874097791e-05  -1.0951523289968788e-05  -7.0014199793358809e-06  -3.4128352058064074e-06  -3.7620238209900403e-13  3.4128346303889878e-06  7.0014197202211247e-06  1.0951522986124736e-05  1.5469631542243137e-05  2.0795074512996332e-05  2.7214445608844936e-05  3.5079419534339561e-05  4.4829399622378382e-05  5.7020948535374533e-05  7.2366761845261415e-05  9.1787995598498765e-05  1.1648645475298114e-04  1.4804224651004746e-04  1.8856490812407378e-04  2.4086338673096335e-04  3.0889084562893892e-04  3.9774796739379202e-04  5.1606942199103984e-04  6.7217892220686540e-04  8.9279068410801142e-04  1.1788902745033321e-03  1.6654420805108858e-03  2.2111663665166348e-03  4.1206212148982794e-03  8.4242686669844854e-03  -6.7441747988912129e-02  -4.2603668018715346e-02  -2.8834170193750966e-02  -2.0545059645644605e-02  -1.5119552485135261e-02  -1.1336566082119354e-02  -8.6210293458422269e-03  -6.6189340510833250e-03  -5.1206795485139412e-03  -3.9844574588911077e-03  -3.1147887562556755e-03  -2.4438841003001665e-03  -1.9230387107108662e-03  -1.5164587159804547e-03  -1.1975082313528727e-03  -9.4611467043851348e-04  -7.4699934372138581e-04  -5.8842323856322671e-04  -4.6128554828756349e-04  -3.5846324046754307e-04  -2.7431953038215635e-04  -2.0433192722511045e-04  -1.4480555677142071e-04  -9.2647233830948442e-05  -4.5182234612887368e-05  -1.3212227560234952e-13  4.5182234443002950e-05  9.2647233626061675e-05  1.4480555662086940e-04  2.0433192712464906e-04  2.7431953030410735e-04  3.5846324039803156e-04  4.6128554822031216e-04  5.8842323849484532e-04  7.4699934367666301e-04  9.4611467042095753e-04  1.1975082313378758e-03  1.5164587159773610e-03  1.9230387107240074e-03  2.4438841003408319e-03  3.1147887563363927e-03  3.9844574589874256e-03  5.1206795486212165e-03  6.6189340511955703e-03  8.6210293459461681e-03  1.1336566082199658e-02  1.5119552485263444e-02  2.0545059645731417e-02  2.8834170193976143e-02  4.2603668018508324e-02  6.7441747988594980e-02  -1.0037223970444926e-01  -6.9764909591594898e-02  -5.0007454896828486e-02  -3.6560824246696870e-02  -2.7270411289717481e-02  -2.0619360406159554e-02  -1.5760865774165744e-02  -1.2146020702834714e-02  -9.4212428532229314e-03  -7.3455928126520626e-03  -5.7511900528273334e-03  -4.5180143352854529e-03  -3.5586856258007873e-03  -2.8086041353235572e-03  -2.2194069830598555e-03  -1.7544997778151774e-03  -1.3859328125183209e-03  -1.0921741403373635e-03  -8.5649403726585649e-04  -6.6577447543808696e-04  -5.0961846372977960e-04  -3.7967324438645847e-04  -2.6910682874877042e-04  -1.7219424344527121e-04  -8.3981147200197447e-05  -1.9564361171701229e-13  8.3981146736837505e-05  1.7219424300491906e-04  2.6910682829123819e-04  3.7967324392441921e-04  5.0961846328491985e-04  6.6577447502515045e-04  8.5649403686736578e-04  1.0921741399503879e-03  1.3859328121432314e-03  1.7544997774636237e-03  2.2194069827472058e-03  2.8086041350480996e-03  3.5586856255726057e-03  4.5180143351037190e-03  5.7511900526791291e-03  7.3455928125375569e-03  9.4212428531247425e-03  1.2146020702775094e-02  1.5760865774142738e-02  2.0619360406195608e-02  2.7270411289737163e-02  3.6560824246943416e-02  5.0007454896574051e-02  6.9764909590844193e-02  1.0037223970380664e-01  -1.2252596295179603e-01  -9.0459824356765695e-02  -6.7114733383330197e-02  -5.0324489998410160e-02  -3.8096438902285590e-02  -2.9109126286278725e-02  -2.2407237573256682e-02  -1.7358287510281747e-02  -1.3516478270479290e-02  -1.0570405237807712e-02  -8.2958136993612017e-03  -6.5296398425423331e-03  -5.1513769017030734e-03  -4.0710131356281693e-03  -3.2206041958337548e-03  -2.5484122299916541e-03  -2.0147193953870242e-03  -1.5888009306614891e-03  -1.2467025672712655e-03  -9.6958712680257359e-04  -7.4248789039556501e-04  -5.5335516337731423e-04  -3.9231483099341899e-04  -2.5107959891241589e-04  -1.2246846668683326e-04  -2.6013260745777201e-13  1.2246846615875616e-04  2.5107959831623214e-04  3.9231483038630242e-04  5.5335516277820850e-04  7.4248788981231900e-04  9.6958712623813241e-04  1.2467025667395617e-03  1.5888009301614542e-03  2.0147193949196208e-03  2.5484122295463983e-03  3.2206041954219687e-03  4.0710131352712344e-03  5.1513769013803471e-03  6.5296398422600987e-03  8.2958136991420784e-03  1.0570405237637288e-02  1.3516478270388210e-02  1.7358287510235351e-02  2.2407237573269574e-02  2.9109126286326694e-02  3.8096438902607110e-02  5.0324489998119407e-02  6.7114733382488037e-02  9.0459824356054291e-02  1.2252596295104695e-01  -1.3851778010299143e-01  -1.0550840592166523e-01  -8.0430032609577456e-02  -6.1473559056147098e-02  -4.7227480840484934e-02  -3.6461816323925735e-02  -2.8290725735832457e-02  -2.2046282457644652e-02  -1.7247015728759019e-02  -1.3537458871054587e-02  -1.0656088382314776e-02  -8.4079300111964128e-03  -6.6467220873277577e-03  -5.2617675478877904e-03  -4.1686944413264031e-03  -3.3027429113900680e-03  -2.6138811758673352e-03  -2.0632018235452075e-03  -1.6202376946563321e-03  -1.2609406065459650e-03  -9.6614220911361306e-04  -7.2036700203997330e-04  -5.1090275360836704e-04  -3.2705790477249532e-04  -1.5955240727873104e-04  -2.6923559383460078e-13  1.5955240669015701e-04  3.2705790410031182e-04  5.1090275286263815e-04  7.2036700127690856e-04  9.6614220836792732e-04  1.2609406058194420e-03  1.6202376939609881e-03  2.0632018228961728e-03  2.6138811752520362e-03  3.3027429108095263e-03  4.1686944407833861e-03  5.2617675473994119e-03  6.6467220869117112e-03  8.4079300108566291e-03  1.0656088382051782e-02  1.3537458870880918e-02  1.7247015728616335e-02  2.2046282457624258e-02  2.8290725735922923e-02  3.6461816324352671e-02  4.7227480840166626e-02  6.1473559055137399e-02  8.0430032608741125e-02  1.0550840592086774e-01  1.3851778010219790e-01  -1.5037712856432117e-01  -1.1692097810530012e-01  -9.0732765721054348e-02  -7.0438244582552045e-02  -5.4776315789992674e-02  -4.2709098153115431e-02  -3.3393073045741586e-02  -2.6183696631564470e-02  -2.0585289805725954e-02  -1.6223275214151726e-02  -1.2812942944826588e-02  -1.0138009487075597e-02  -8.0333108319107383e-03  -6.3722197159212539e-03  -5.0571674771334174e-03  -4.0126133175241779e-03  -3.1797746981877127e-03  -2.5126644841165992e-03  -1.9750884815044941e-03  -1.5383535990443871e-03  -1.1795026221350579e-03  -8.7993972395599806e-04  -6.2434515596577458e-04  -3.9980211197262951e-04  -1.9507618425996390e-04  -2.4932207177715053e-13  1.9507618368169073e-04  3.9980211129287622e-04  6.2434515523412764e-04  8.7993972319192360e-04  1.1795026213505221e-03  1.5383535982554462e-03  1.9750884807351200e-03  2.5126644833701967e-03  3.1797746974803411e-03  4.0126133168672381e-03  5.0571674765383587e-03  6.3722197153665899e-03  8.0333108314050699e-03  1.0138009486647351e-02  1.2812942944486642e-02  1.6223275213921487e-02  2.0585289805696464e-02  2.6183696631656282e-02  3.3393073046264682e-02  4.2709098152787173e-02  5.4776315788829480e-02  7.0438244581631726e-02  9.0732765720196160e-02  1.1692097810444475e-01  1.5037712856345348e-01  -1.5934793411236131e-01  -1.2559203609706854e-01  -9.8750572753845162e-02  -7.7560400235144669e-02  -6.0934296940617742e-02  -4.7916102092090469e-02  -3.7733170754019135e-02  -2.9762220739588487e-02  -2.3514743287960927e-02  -1.8608905164956075e-02  -1.4748656636136892e-02  -1.1704431878594559e-02  -9.2982566074781420e-03  -7.3918696704779125e-03  -5.8776002440575721e-03  -4.6713358873571439e-03  -3.7071315681219989e-03  -2.9330669243666282e-03  -2.3080540460014725e-03  -1.7993654072724376e-03  -1.3807066311784944e-03  -1.0307002125805335e-03  -7.3167749545230627e-04  -4.6869926314004447e-04  -2.2874213764462585e-04  -2.6477342941841240e-13  2.2874213707338580e-04  4.6869926244608190e-04  7.3167749465062896e-04  1.0307002117236593e-03  1.3807066303076476e-03  1.7993654064108239e-03  2.3080540451515257e-03  2.9330669235459058e-03  3.7071315673325935e-03  4.6713358866112189e-03  5.8776002433607267e-03  7.3918696698432795e-03  9.2982566069291679e-03  1.1704431878171608e-02  1.4748656635860913e-02  1.8608905164908023e-02  2.3514743288074211e-02  2.9762220740257264e-02  3.7733170753674432e-02  4.7916102090725818e-02  6.0934296939599439e-02  7.7560400234221033e-02  9.8750572752970181e-02  1.2559203609619979e-01  1.5934793411147977e-01  -1.6621676345479364e-01  -1.3227774777082996e-01  -1.0499725179877924e-01  -8.3217285426096882e-02  -6.5914203842455166e-02  -5.2210389268781611e-02  -4.1374835203468352e-02  -3.2813285920576599e-02  -2.6047325773125674e-02  -2.0696730850581879e-02  -1.6460815216414310e-02  -1.3102844187826370e-02  -1.0436683124454423e-02  -8.3160348763551897e-03  -6.6258126865083294e-03  -5.2753343127227110e-03  -4.1929752870614630e-03  -3.3219813455512689e-03  -2.6171875181387936e-03  -2.0424414057341389e-03  -1.5685698278535181e-03  -1.1717621272237641e-03  -8.3227023416453962e-04  -5.3334622493133872e-04  -2.6035362058298708e-04  -1.6442399145781280e-13  2.6035362016001688e-04  5.3334622437232679e-04  8.3227023350588365e-04  1.1717621264682040e-03  1.5685698270301220e-03  2.0424414048875886e-03  2.6171875172892401e-03  3.3219813447175044e-03  4.1929752862766290e-03  5.2753343119944012e-03  6.6258126858564055e-03  8.3160348758179511e-03  1.0436683124066889e-02  1.3102844187589960e-02  1.6460815216394743e-02  2.0696730850704052e-02  2.6047325773929236e-02  3.2813285920176613e-02  4.1374835201844568e-02  5.2210389267624419e-02  6.5914203841463292e-02  8.3217285425186791e-02  1.0499725179789564e-01  1.3227774776996445e-01  1.6621676345391723e-01  -1.7152642508655574e-01  -1.3746155413785843e-01  -1.0989127415492086e-01  -8.7703091810635056e-02  -6.9926007478716370e-02  -5.5723429682937455e-02  -4.4400650045861009e-02  -3.5384803965648200e-02  -2.8210146767218822e-02  -2.2500888574891634e-02  -1.7956049395589826e-02  -1.4335586326751212e-02  -1.1448624876688199e-02  -9.1436002347098956e-03  -7.3002071462874166e-03  -5.8228973886930045e-03  -4.6356751926990899e-03  -3.6779503560980804e-03  -2.9012406791480089e-03  -2.2665481058276381e-03  -1.7422642596905808e-03  -1.3024881461563096e-03  -9.2566120358308912e-04  -5.9344277861926521e-04  -2.8976295373496508e-04  -1.0962096735987905e-13  2.8976295343666067e-04  5.9344277817339022e-04  9.2566120298956563e-04  1.3024881454506204e-03  1.7422642588940372e-03  2.2665481049662498e-03  2.9012406782790256e-03  3.6779503552781248e-03  4.6356751919625419e-03  5.8228973880723482e-03  7.3002071458032952e-03  9.1436002343872058e-03  1.1448624876548892e-02  1.4335586326834076e-02  1.7956049395850576e-02  2.2500888575916245e-02  2.8210146766754072e-02  3.5384803963739962e-02  4.4400650044557913e-02  5.5723429681826003e-02  6.9926007477693800e-02  8.7703091809687148e-02  1.0989127415401166e-01  1.3746155413695943e-01  1.7152642508565549e-01  -1.7565943557975852e-01  -1.4150892407887586e-01  -1.1373673169498605e-01  -9.1264953292756371e-02  -7.3149140628516948e-02  -5.8583489289910945e-02  -4.6896549892589144e-02  -3.7533415471660572e-02  -3.0039163942735758e-02  -2.4043725508022515e-02  -1.9247798352600390e-02  -1.5410447823507947e-02  -1.2338343270204995e-02  -9.8766777272628892e-03  -7.9016221964139152e-03  -6.3141405350798036e-03  -5.0349636365314481e-03  -4.0005297514444744e-03  -3.1597152995701152e-03  -2.4712037197276559e-03  -1.9013633533945392e-03  -1.4225269005574311e-03  -1.0115835575721457e-03  -6.4881027351325826e-04  -3.1688073875735213e-04  -4.9661412677456433e-14  3.1688073861086861e-04  6.4881027323446651e-04  1.0115835571706706e-03  1.4225269000483585e-03  1.9013633528228025e-03  2.4712037191386882e-03  3.1597152989919458e-03  4.0005297508978509e-03  5.0349636360374917e-03  6.3141405346784007e-03  7.9016221961404134e-03  9.8766777271397325e-03  1.2338343270325448e-02  1.5410447823869846e-02  1.9247798353831062e-02  2.4043725507543318e-02  3.0039163940550027e-02  3.7533415470141517e-02  4.6896549891282002e-02  5.8583489288784395e-02  7.3149140627513209e-02  9.1264953291799206e-02  1.1373673169407243e-01  1.4150892407796561e-01  1.7565943557884647e-01  -1.7889436045227777e-01  -1.4468312711365700e-01  -1.1676927580745550e-01  -9.4095492322990457e-02  -7.5735996990895005e-02  -6.0903829066945421e-02  -4.8944642841953302e-02  -3.9316538377156325e-02  -3.1573765183538161e-02  -2.5351677330075307e-02  -2.0353513528362451e-02  -1.6338743917065492e-02  -1.3113037692837132e-02  -1.0519742884965350e-02  -8.4327562959727476e-03  -6.7506204679312880e-03  -5.3916776755426306e-03  -4.2901146840899421e-03  -3.3927457109802980e-03  -2.6563986391393004e-03  -2.0457881407376075e-03  -1.5317769819749355e-03  -1.0899423961409746e-03  -6.9937760816040392e-04  -3.4166928896089000e-04  1.1590818203236662e-13  3.4166928919089222e-04  6.9937760832479976e-04  1.0899423961582154e-03  1.5317769818552203e-03  2.0457881405089775e-03  2.6563986388558072e-03  3.3927457106868435e-03  4.2901146838124574e-03  5.3916776753099001e-03  6.7506204677896262e-03  8.4327562960026317e-03  1.0519742885280067e-02  1.3113037693406875e-02  1.6338743918539057e-02  2.0353513527847082e-02  2.5351677327614650e-02  3.1573765181874283e-02  3.9316538375715401e-02  4.8944642840689646e-02  6.0903829065811738e-02  7.5735996989843221e-02  9.4095492322009644e-02  1.1676927580650653e-01  1.4468312711272832e-01  1.7889436045135185e-01  -1.8143726201313606e-01  -1.4718256944467550e-01  -1.1916697557499015e-01  -9.6347878790745675e-02  -7.7810858067120917e-02  -6.2782036226343887e-02  -5.0618662498810467e-02  -4.0788559829152207e-02  -3.2853133124334438e-02  -2.6452498805619611e-02  -2.1292557113715752e-02  -1.7133811289997896e-02  -1.3781785226862036e-02  -1.1078901691824520e-02  -8.8976658801634290e-03  -7.1349942319171751e-03  -5.7075286248623293e-03  -4.5477845236476210e-03  -3.6009947257748323e-03  -2.8225259006475151e-03  -2.1757611198288951e-03  -1.6303567442861636e-03  -1.1607955999893716e-03  -7.4516996852373339e-04  -3.6413742573684058e-04  3.6472851702802237e-13  3.6413742638562668e-04  7.4516996902736405e-04  1.1607956003414660e-03  1.6303567445035087e-03  2.1757611199555052e-03  2.8225259007448105e-03  3.6009947258762737e-03  4.5477845237932675e-03  5.7075286250958005e-03  7.1349942322848827e-03  8.8976658807800105e-03  1.1078901692677700e-02  1.3781785228603941e-02  1.7133811289485847e-02  2.1292557111034817e-02  2.6452498803797759e-02  3.2853133122741303e-02  4.0788559827737395e-02  5.0618662497552210e-02  6.2782036225202370e-02  7.7810858066063304e-02  9.6347878789738411e-02  1.1916697557402726e-01  1.4718256944374852e-01  1.8143726201222257e-01  -1.8344296766485788e-01  -1.4915661615712747e-01  -1.2106714793232379e-01  -9.8142078320259854e-02  -7.9474679282192776e-02  -6.4299773930061185e-02  -5.1982797614086348e-02  -4.1998596070091057e-02  -3.3914090835924650e-02  -2.7373314771951745e-02  -2.2084630436924574e-02  -1.7809789268803892e-02  -1.4354630600987094e-02  -1.1561225403208556e-02  -9.3012869563440063e-03  -7.4706788276096897e-03  -5.9848617625006088e-03  -4.7751341815071352e-03  -3.7855358124002886e-03  -2.9702993326772890e-03  -2.2917498742365911e-03  -1.7185660969517664e-03  -1.2243288294762782e-03  -7.8629377528326085e-04  -3.8433341270899030e-04  5.4976598902643227e-13  3.8433341376946319e-04  7.8629377622430432e-04  1.2243288302819658e-03  1.7185660976464529e-03  2.2917498748615248e-03  2.9702993332355642e-03  3.7855358129632068e-03  4.7751341821479984e-03  5.9848617633218642e-03  7.4706788287053176e-03  9.3012869576219771e-03  1.1561225405287250e-02  1.4354630600532098e-02  1.7809789265902282e-02  2.2084630434869894e-02  2.7373314770170444e-02  3.3914090834375570e-02  4.1998596068722277e-02  5.1982797612838347e-02  6.4299773928898907e-02  7.9474679281086161e-02  9.8142078319204018e-02  1.2106714793129655e-01  1.4915661615612286e-01  1.8344296766386042e-01  -1.8502903220547595e-01  -1.5071938577453758e-01  -1.2257560352354514e-01  -9.9572538816485201e-02  -8.0808574587743223e-02  -6.5524551563174938e-02  -5.3091616359051769e-02  -4.2989719273237345e-02  -3.4789942233563860e-02  -2.8139444593648220e-02  -2.2748710857800759e-02  -1.8380734653739274e-02  -1.4841882303250715e-02  -1.1974209078534163e-02  -9.6490278531214668e-03  -7.7615498820427517e-03  -6.2264360349206377e-03  -4.9741145518073593e-03  -3.9477384475736883e-03  -3.1006718652737061e-03  -2.3944095255456492e-03  -1.7968467433712868e-03  -1.2808290871651430e-03  -8.2292057418772383e-04  -4.0233733641610369e-04  7.6766486071560094e-13  4.0233733789429090e-04  8.2292057555973267e-04  1.2808290884243456e-03  1.7968467445520376e-03  2.3944095266741831e-03  3.1006718664331164e-03  3.9477384487889653e-03  4.9741145531523034e-03  6.2264360364566824e-03  7.7615498837472719e-03  9.6490278555944765e-03  1.1974209078229268e-02  1.4841882300244748e-02  1.8380734651538621e-02  2.2748710855894094e-02  2.8139444591978254e-02  3.4789942232071401e-02  4.2989719271892358e-02  5.3091616357818318e-02  6.5524551561986930e-02  8.0808574586599499e-02  9.9572538815393061e-02  1.2257560352249210e-01  1.5071938577350155e-01  1.8502903220443975e-01  -1.8628549665421035e-01  -1.5195854181705165e-01  -1.2377447240618222e-01  -1.0071350613315702e-01  -8.1877540164365284e-02  -6.6511584567082602e-02  -5.3990824508011188e-02  -4.3798902776622142e-02  -3.5510017177399447e-02  -2.8773767890068701e-02  -2.3302395381406021e-02  -1.8860020110552180e-02  -1.5253599792908858e-02  -1.2325354062986113e-02  -9.9464399161625517e-03  -8.0116877468366723e-03  -6.4352315860968816e-03  -5.1468885326031097e-03  -4.0891616333774703e-03  -3.2147576774154223e-03  -2.4845266283243629e-03  -1.8657426516035355e-03  -1.3306580120216439e-03  -8.5527056746041794e-04  -4.1825325989408178e-04  9.0724476325616667e-13  4.1825326171767205e-04  8.5527056926313499e-04  1.3306580137885048e-03  1.8657426533500976e-03  2.4845266300964701e-03  3.2147576792110710e-03  4.0891616352811766e-03  5.1468885346571082e-03  6.4352315882529780e-03  8.0116877496636818e-03  9.9464399160554707e-03  1.2325354060024378e-02  1.5253599790678493e-02  1.8860020108548866e-02  2.3302395379641773e-02  2.8773767888491966e-02  3.5510017175961757e-02  4.3798902775305057e-02  5.3990824506761084e-02  6.6511584565876428e-02  8.1877540163199022e-02  1.0071350613203572e-01  1.2377447240510296e-01  1.5195854181599017e-01  1.8628549665314767e-01  -1.8728177811171273e-01  -1.5294187081754171e-01  -1.2472768949510062e-01  -1.0162344957941882e-01  -8.2733486285865854e-02  -6.7305744067694337e-02  -5.4718275431133313e-02  -4.4457401563459446e-02  -3.6099639671124562e-02  -2.9296470193845476e-02  -2.3761548025999162e-02  -1.9259962846317612e-02  -1.5599246981002278e-02  -1.2621866415189711e-02  -1.0198966661027179e-02  -8.2251753580846552e-03  -6.6142906095519472e-03  -5.2957079888268860e-03  -4.2114602356040772e-03  -3.3137619630560261e-03  -2.5629674342495549e-03  -1.9258629220082482e-03  -1.3742264157874785e-03  -8.8359673744347299e-04  -4.3220160648376268e-04  1.0251507108483515e-12  4.3220160860151484e-04  8.8359673965225595e-04  1.3742264180232556e-03  1.9258629242854450e-03  2.5629674365694024e-03  3.3137619654962343e-03  4.2114602381680922e-03  5.2957079914507620e-03  6.6142906127676648e-03  8.2251753581971121e-03  1.0198966658109314e-02  1.2621866412974183e-02  1.5599246979001859e-02  1.9259962844534604e-02  2.3761548024369483e-02  2.9296470192325570e-02  3.6099639669736533e-02  4.4457401562153907e-02  5.4718275429881336e-02  6.7305744066498141e-02  8.2733486284720784e-02  1.0162344957829123e