<?xml version="1.0"?>
<VTKFile type="UnstructuredGrid"  version="0.1"  >
<UnstructuredGrid>
<Piece  NumberOfPoints="5101" NumberOfCells="10000">
<Points>
<DataArray  type="Float64"  NumberOfComponents="3"  format="ascii">0 0 0  0.2 0 0  0.4 0 0  0.6 0 0  0.8 0 0  1 0 0  1.2 0 0  1.4 0 0  1.6 0 0  1.8 0 0  2 0 0  2.2 0 0  2.4 0 0  2.6 0 0  2.8 0 0  3 0 0  3.2 0 0  3.4 0 0  3.6 0 0  3.8 0 0  4 0 0  4.2 0 0  4.4 0 0  4.6 0 0  4.8 0 0  5 0 0  5.2 0 0  5.4 0 0  5.6 0 0  5.8 0 0  6 0 0  6.2 0 0  6.4 0 0  6.6 0 0  6.8 0 0  7 0 0  7.2 0 0  7.4 0 0  7.6 0 0  7.8 0 0  8 0 0  8.199999999999999 0 0  8.4 0 0  8.6 0 0  8.800000000000001 0 0  9 0 0  9.199999999999999 0 0  9.4 0 0  9.6 0 0  9.800000000000001 0 0  10 0 0  0 0.2 0  0.2 0.2 0  0.4 0.2 0  0.6 0.2 0  0.8 0.2 0  1 0.2 0  1.2 0.2 0  1.4 0.2 0  1.6 0.2 0  1.8 0.2 0  2 0.2 0  2.2 0.2 0  2.4 0.2 0  2.6 0.2 0  2.8 0.2 0  3 0.2 0  3.2 0.2 0  3.4 0.2 0  3.6 0.2 0  3.8 0.2 0  4 0.2 0  4.2 0.2 0  4.4 0.2 0  4.6 0.2 0  4.8 0.2 0  5 0.2 0  5.2 0.2 0  5.4 0.2 0  5.6 0.2 0  5.8 0.2 0  6 0.2 0  6.2 0.2 0  6.4 0.2 0  6.6 0.2 0  6.8 0.2 0  7 0.2 0  7.2 0.2 0  7.4 0.2 0  7.6 0.2 0  7.8 0.2 0  8 0.2 0  8.199999999999999 0.2 0  8.4 0.2 0  8.6 0.2 0  8.800000000000001 0.2 0  9 0.2 0  9.199999999999999 0.2 0  9.4 0.2 0  9.6 0.2 0  9.800000000000001 0.2 0  10 0.2 0  0 0.4 0  0.2 0.4 0  0.4 0.4 0  0.6 0.4 0  0.8 0.4 0  1 0.4 0  1.2 0.4 0  1.4 0.4 0  1.6 0.4 0  1.8 0.4 0  2 0.4 0  2.2 0.4 0  2.4 0.4 0  2.6 0.4 0  2.8 0.4 0  3 0.4 0  3.2 0.4 0  3.4 0.4 0  3.6 0.4 0  3.8 0.4 0  4 0.4 0  4.2 0.4 0  4.4 0.4 0  4.6 0.4 0  4.8 0.4 0  5 0.4 0  5.2 0.4 0  5.4 0.4 0  5.6 0.4 0  5.8 0.4 0  6 0.4 0  6.2 0.4 0  6.4 0.4 0  6.6 0.4 0  6.8 0.4 0  7 0.4 0  7.2 0.4 0  7.4 0.4 0  7.6 0.4 0  7.8 0.4 0  8 0.4 0  8.199999999999999 0.4 0  8.4 0.4 0  8.6 0.4 0  8.800000000000001 0.4 0  9 0.4 0  9.199999999999999 0.4 0  9.4 0.4 0  9.6 0.4 0  9.800000000000001 0.4 0  10 0.4 0  0 0.6 0  0.2 0.6 0  0.4 0.6 0  0.6 0.6 0  0.8 0.6 0  1 0.6 0  1.2 0.6 0  1.4 0.6 0  1.6 0.6 0  1.8 0.6 0  2 0.6 0  2.2 0.6 0  2.4 0.6 0  2.6 0.6 0  2.8 0.6 0  3 0.6 0  3.2 0.6 0  3.4 0.6 0  3.6 0.6 0  3.8 0.6 0  4 0.6 0  4.2 0.6 0  4.4 0.6 0  4.6 0.6 0  4.8 0.6 0  5 0.6 0  5.2 0.6 0  5.4 0.6 0  5.6 0.6 0  5.8 0.6 0  6 0.6 0  6.2 0.6 0  6.4 0.6 0  6.6 0.6 0  6.8 0.6 0  7 0.6 0  7.2 0.6 0  7.4 0.6 0  7.6 0.6 0  7.8 0.6 0  8 0.6 0  8.199999999999999 0.6 0  8.4 0.6 0  8.6 0.6 0  8.800000000000001 0.6 0  9 0.6 0  9.199999999999999 0.6 0  9.4 0.6 0  9.6 0.6 0  9.800000000000001 0.6 0  10 0.6 0  0 0.8 0  0.2 0.8 0  0.4 0.8 0  0.6 0.8 0  0.8 0.8 0  1 0.8 0  1.2 0.8 0  1.4 0.8 0  1.6 0.8 0  1.8 0.8 0  2 0.8 0  2.2 0.8 0  2.4 0.8 0  2.6 0.8 0  2.8 0.8 0  3 0.8 0  3.2 0.8 0  3.4 0.8 0  3.6 0.8 0  3.8 0.8 0  4 0.8 0  4.2 0.8 0  4.4 0.8 0  4.6 0.8 0  4.8 0.8 0  5 0.8 0  5.2 0.8 0  5.4 0.8 0  5.6 0.8 0  5.8 0.8 0  6 0.8 0  6.2 0.8 0  6.4 0.8 0  6.6 0.8 0  6.8 0.8 0  7 0.8 0  7.2 0.8 0  7.4 0.8 0  7.6 0.8 0  7.8 0.8 0  8 0.8 0  8.199999999999999 0.8 0  8.4 0.8 0  8.6 0.8 0  8.800000000000001 0.8 0  9 0.8 0  9.199999999999999 0.8 0  9.4 0.8 0  9.6 0.8 0  9.800000000000001 0.8 0  10 0.8 0  0 1 0  0.2 1 0  0.4 1 0  0.6 1 0  0.8 1 0  1 1 0  1.2 1 0  1.4 1 0  1.6 1 0  1.8 1 0  2 1 0  2.2 1 0  2.4 1 0  2.6 1 0  2.8 1 0  3 1 0  3.2 1 0  3.4 1 0  3.6 1 0  3.8 1 0  4 1 0  4.2 1 0  4.4 1 0  4.6 1 0  4.8 1 0  5 1 0  5.2 1 0  5.4 1 0  5.6 1 0  5.8 1 0  6 1 0  6.2 1 0  6.4 1 0  6.6 1 0  6.8 1 0  7 1 0  7.2 1 0  7.4 1 0  7.6 1 0  7.8 1 0  8 1 0  8.199999999999999 1 0  8.4 1 0  8.6 1 0  8.800000000000001 1 0  9 1 0  9.199999999999999 1 0  9.4 1 0  9.6 1 0  9.800000000000001 1 0  10 1 0  0 1.2 0  0.2 1.2 0  0.4 1.2 0  0.6 1.2 0  0.8 1.2 0  1 1.2 0  1.2 1.2 0  1.4 1.2 0  1.6 1.2 0  1.8 1.2 0  2 1.2 0  2.2 1.2 0  2.4 1.2 0  2.6 1.2 0  2.8 1.2 0  3 1.2 0  3.2 1.2 0  3.4 1.2 0  3.6 1.2 0  3.8 1.2 0  4 1.2 0  4.2 1.2 0  4.4 1.2 0  4.6 1.2 0  4.8 1.2 0  5 1.2 0  5.2 1.2 0  5.4 1.2 0  5.6 1.2 0  5.8 1.2 0  6 1.2 0  6.2 1.2 0  6.4 1.2 0  6.6 1.2 0  6.8 1.2 0  7 1.2 0  7.2 1.2 0  7.4 1.2 0  7.6 1.2 0  7.8 1.2 0  8 1.2 0  8.199999999999999 1.2 0  8.4 1.2 0  8.6 1.2 0  8.800000000000001 1.2 0  9 1.2 0  9.199999999999999 1.2 0  9.4 1.2 0  9.6 1.2 0  9.800000000000001 1.2 0  10 1.2 0  0 1.4 0  0.2 1.4 0  0.4 1.4 0  0.6 1.4 0  0.8 1.4 0  1 1.4 0  1.2 1.4 0  1.4 1.4 0  1.6 1.4 0  1.8 1.4 0  2 1.4 0  2.2 1.4 0  2.4 1.4 0  2.6 1.4 0  2.8 1.4 0  3 1.4 0  3.2 1.4 0  3.4 1.4 0  3.6 1.4 0  3.8 1.4 0  4 1.4 0  4.2 1.4 0  4.4 1.4 0  4.6 1.4 0  4.8 1.4 0  5 1.4 0  5.2 1.4 0  5.4 1.4 0  5.6 1.4 0  5.8 1.4 0  6 1.4 0  6.2 1.4 0  6.4 1.4 0  6.6 1.4 0  6.8 1.4 0  7 1.4 0  7.2 1.4 0  7.4 1.4 0  7.6 1.4 0  7.8 1.4 0  8 1.4 0  8.199999999999999 1.4 0  8.4 1.4 0  8.6 1.4 0  8.800000000000001 1.4 0  9 1.4 0  9.199999999999999 1.4 0  9.4 1.4 0  9.6 1.4 0  9.800000000000001 1.4 0  10 1.4 0  0 1.6 0  0.2 1.6 0  0.4 1.6 0  0.6 1.6 0  0.8 1.6 0  1 1.6 0  1.2 1.6 0  1.4 1.6 0  1.6 1.6 0  1.8 1.6 0  2 1.6 0  2.2 1.6 0  2.4 1.6 0  2.6 1.6 0  2.8 1.6 0  3 1.6 0  3.2 1.6 0  3.4 1.6 0  3.6 1.6 0  3.8 1.6 0  4 1.6 0  4.2 1.6 0  4.4 1.6 0  4.6 1.6 0  4.8 1.6 0  5 1.6 0  5.2 1.6 0  5.4 1.6 0  5.6 1.6 0  5.8 1.6 0  6 1.6 0  6.2 1.6 0  6.4 1.6 0  6.6 1.6 0  6.8 1.6 0  7 1.6 0  7.2 1.6 0  7.4 1.6 0  7.6 1.6 0  7.8 1.6 0  8 1.6 0  8.199999999999999 1.6 0  8.4 1.6 0  8.6 1.6 0  8.800000000000001 1.6 0  9 1.6 0  9.199999999999999 1.6 0  9.4 1.6 0  9.6 1.6 0  9.800000000000001 1.6 0  10 1.6 0  0 1.8 0  0.2 1.8 0  0.4 1.8 0  0.6 1.8 0  0.8 1.8 0  1 1.8 0  1.2 1.8 0  1.4 1.8 0  1.6 1.8 0  1.8 1.8 0  2 1.8 0  2.2 1.8 0  2.4 1.8 0  2.6 1.8 0  2.8 1.8 0  3 1.8 0  3.2 1.8 0  3.4 1.8 0  3.6 1.8 0  3.8 1.8 0  4 1.8 0  4.2 1.8 0  4.4 1.8 0  4.6 1.8 0  4.8 1.8 0  5 1.8 0  5.2 1.8 0  5.4 1.8 0  5.6 1.8 0  5.8 1.8 0  6 1.8 0  6.2 1.8 0  6.4 1.8 0  6.6 1.8 0  6.8 1.8 0  7 1.8 0  7.2 1.8 0  7.4 1.8 0  7.6 1.8 0  7.8 1.8 0  8 1.8 0  8.199999999999999 1.8 0  8.4 1.8 0  8.6 1.8 0  8.800000000000001 1.8 0  9 1.8 0  9.199999999999999 1.8 0  9.4 1.8 0  9.6 1.8 0  9.800000000000001 1.8 0  10 1.8 0  0 2 0  0.2 2 0  0.4 2 0  0.6 2 0  0.8 2 0  1 2 0  1.2 2 0  1.4 2 0  1.6 2 0  1.8 2 0  2 2 0  2.2 2 0  2.4 2 0  2.6 2 0  2.8 2 0  3 2 0  3.2 2 0  3.4 2 0  3.6 2 0  3.8 2 0  4 2 0  4.2 2 0  4.4 2 0  4.6 2 0  4.8 2 0  5 2 0  5.2 2 0  5.4 2 0  5.6 2 0  5.8 2 0  6 2 0  6.2 2 0  6.4 2 0  6.6 2 0  6.8 2 0  7 2 0  7.2 2 0  7.4 2 0  7.6 2 0  7.8 2 0  8 2 0  8.199999999999999 2 0  8.4 2 0  8.6 2 0  8.800000000000001 2 0  9 2 0  9.199999999999999 2 0  9.4 2 0  9.6 2 0  9.800000000000001 2 0  10 2 0  0 2.2 0  0.2 2.2 0  0.4 2.2 0  0.6 2.2 0  0.8 2.2 0  1 2.2 0  1.2 2.2 0  1.4 2.2 0  1.6 2.2 0  1.8 2.2 0  2 2.2 0  2.2 2.2 0  2.4 2.2 0  2.6 2.2 0  2.8 2.2 0  3 2.2 0  3.2 2.2 0  3.4 2.2 0  3.6 2.2 0  3.8 2.2 0  4 2.2 0  4.2 2.2 0  4.4 2.2 0  4.6 2.2 0  4.8 2.2 0  5 2.2 0  5.2 2.2 0  5.4 2.2 0  5.6 2.2 0  5.8 2.2 0  6 2.2 0  6.2 2.2 0  6.4 2.2 0  6.6 2.2 0  6.8 2.2 0  7 2.2 0  7.2 2.2 0  7.4 2.2 0  7.6 2.2 0  7.8 2.2 0  8 2.2 0  8.199999999999999 2.2 0  8.4 2.2 0  8.6 2.2 0  8.800000000000001 2.2 0  9 2.2 0  9.199999999999999 2.2 0  9.4 2.2 0  9.6 2.2 0  9.800000000000001 2.2 0  10 2.2 0  0 2.4 0  0.2 2.4 0  0.4 2.4 0  0.6 2.4 0  0.8 2.4 0  1 2.4 0  1.2 2.4 0  1.4 2.4 0  1.6 2.4 0  1.8 2.4 0  2 2.4 0  2.2 2.4 0  2.4 2.4 0  2.6 2.4 0  2.8 2.4 0  3 2.4 0  3.2 2.4 0  3.4 2.4 0  3.6 2.4 0  3.8 2.4 0  4 2.4 0  4.2 2.4 0  4.4 2.4 0  4.6 2.4 0  4.8 2.4 0  5 2.4 0  5.2 2.4 0  5.4 2.4 0  5.6 2.4 0  5.8 2.4 0  6 2.4 0  6.2 2.4 0  6.4 2.4 0  6.6 2.4 0  6.8 2.4 0  7 2.4 0  7.2 2.4 0  7.4 2.4 0  7.6 2.4 0  7.8 2.4 0  8 2.4 0  8.199999999999999 2.4 0  8.4 2.4 0  8.6 2.4 0  8.800000000000001 2.4 0  9 2.4 0  9.199999999999999 2.4 0  9.4 2.4 0  9.6 2.4 0  9.800000000000001 2.4 0  10 2.4 0  0 2.6 0  0.2 2.6 0  0.4 2.6 0  0.6 2.6 0  0.8 2.6 0  1 2.6 0  1.2 2.6 0  1.4 2.6 0  1.6 2.6 0  1.8 2.6 0  2 2.6 0  2.2 2.6 0  2.4 2.6 0  2.6 2.6 0  2.8 2.6 0  3 2.6 0  3.2 2.6 0  3.4 2.6 0  3.6 2.6 0  3.8 2.6 0  4 2.6 0  4.2 2.6 0  4.4 2.6 0  4.6 2.6 0  4.8 2.6 0  5 2.6 0  5.2 2.6 0  5.4 2.6 0  5.6 2.6 0  5.8 2.6 0  6 2.6 0  6.2 2.6 0  6.4 2.6 0  6.6 2.6 0  6.8 2.6 0  7 2.6 0  7.2 2.6 0  7.4 2.6 0  7.6 2.6 0  7.8 2.6 0  8 2.6 0  8.199999999999999 2.6 0  8.4 2.6 0  8.6 2.6 0  8.800000000000001 2.6 0  9 2.6 0  9.199999999999999 2.6 0  9.4 2.6 0  9.6 2.6 0  9.800000000000001 2.6 0  10 2.6 0  0 2.8 0  0.2 2.8 0  0.4 2.8 0  0.6 2.8 0  0.8 2.8 0  1 2.8 0  1.2 2.8 0  1.4 2.8 0  1.6 2.8 0  1.8 2.8 0  2 2.8 0  2.2 2.8 0  2.4 2.8 0  2.6 2.8 0  2.8 2.8 0  3 2.8 0  3.2 2.8 0  3.4 2.8 0  3.6 2.8 0  3.8 2.8 0  4 2.8 0  4.2 2.8 0  4.4 2.8 0  4.6 2.8 0  4.8 2.8 0  5 2.8 0  5.2 2.8 0  5.4 2.8 0  5.6 2.8 0  5.8 2.8 0  6 2.8 0  6.2 2.8 0  6.4 2.8 0  6.6 2.8 0  6.8 2.8 0  7 2.8 0  7.2 2.8 0  7.4 2.8 0  7.6 2.8 0  7.8 2.8 0  8 2.8 0  8.199999999999999 2.8 0  8.4 2.8 0  8.6 2.8 0  8.800000000000001 2.8 0  9 2.8 0  9.199999999999999 2.8 0  9.4 2.8 0  9.6 2.8 0  9.800000000000001 2.8 0  10 2.8 0  0 3 0  0.2 3 0  0.4 3 0  0.6 3 0  0.8 3 0  1 3 0  1.2 3 0  1.4 3 0  1.6 3 0  1.8 3 0  2 3 0  2.2 3 0  2.4 3 0  2.6 3 0  2.8 3 0  3 3 0  3.2 3 0  3.4 3 0  3.6 3 0  3.8 3 0  4 3 0  4.2 3 0  4.4 3 0  4.6 3 0  4.8 3 0  5 3 0  5.2 3 0  5.4 3 0  5.6 3 0  5.8 3 0  6 3 0  6.2 3 0  6.4 3 0  6.6 3 0  6.8 3 0  7 3 0  7.2 3 0  7.4 3 0  7.6 3 0  7.8 3 0  8 3 0  8.199999999999999 3 0  8.4 3 0  8.6 3 0  8.800000000000001 3 0  9 3 0  9.199999999999999 3 0  9.4 3 0  9.6 3 0  9.800000000000001 3 0  10 3 0  0 3.2 0  0.2 3.2 0  0.4 3.2 0  0.6 3.2 0  0.8 3.2 0  1 3.2 0  1.2 3.2 0  1.4 3.2 0  1.6 3.2 0  1.8 3.2 0  2 3.2 0  2.2 3.2 0  2.4 3.2 0  2.6 3.2 0  2.8 3.2 0  3 3.2 0  3.2 3.2 0  3.4 3.2 0  3.6 3.2 0  3.8 3.2 0  4 3.2 0  4.2 3.2 0  4.4 3.2 0  4.6 3.2 0  4.8 3.2 0  5 3.2 0  5.2 3.2 0  5.4 3.2 0  5.6 3.2 0  5.8 3.2 0  6 3.2 0  6.2 3.2 0  6.4 3.2 0  6.6 3.2 0  6.8 3.2 0  7 3.2 0  7.2 3.2 0  7.4 3.2 0  7.6 3.2 0  7.8 3.2 0  8 3.2 0  8.199999999999999 3.2 0  8.4 3.2 0  8.6 3.2 0  8.800000000000001 3.2 0  9 3.2 0  9.199999999999999 3.2 0  9.4 3.2 0  9.6 3.2 0  9.800000000000001 3.2 0  10 3.2 0  0 3.4 0  0.2 3.4 0  0.4 3.4 0  0.6 3.4 0  0.8 3.4 0  1 
[...]
<PointData  Scalars="f_9"> 
<DataArray  type="Float64"  Name="f_9"  format="ascii">-3.9758690273886971e-03  -1.9206708469991537e-03  -1.0425991808524267e-03  -7.6645778536289181e-04  -5.5027016446468639e-04  -4.1262567393677175e-04  -3.1180781862137207e-04  -2.3868809414474596e-04  -1.8404825747125810e-04  -1.4281171318132919e-04  -1.1134879394852292e-04  -8.7152692811204505e-05  -6.8421270636406936e-05  -5.3838182327766182e-05  -4.2427134969281234e-05  -3.3455055183925799e-05  -2.6365689429659222e-05  -2.0732940641432097e-05  -1.6227420145928697e-05  -1.2592043204566180e-05  -9.6239263622170082e-06  -7.1607339361132629e-06  -5.0701883932075331e-06  -3.2418293193273157e-06  -1.5803499371624142e-06  -1.8630733406895288e-13  1.5803496866704378e-06  3.2418292314586991e-06  5.0701882671211114e-06  7.1607337934440011e-06  9.6239262115831760e-06  1.2592043051784872e-05  1.6227419990778120e-05  2.0732940476411142e-05  2.6365689258324751e-05  3.3455055008985781e-05  4.2427134810042326e-05  5.3838182169642573e-05  6.8421270473070496e-05  8.7152692648257348e-05  1.1134879377799574e-04  1.4281171301567860e-04  1.8404825730151614e-04  2.3868809397733929e-04  3.1180781844919366e-04  4.1262567374617106e-04  5.5027016426588058e-04  7.6645778515979516e-04  1.0425991806293133e-03  1.9206708470609968e-03  3.9758690273601410e-03  -3.1870038538528538e-02  -2.0169299465394488e-02  -1.3634293308348132e-02  -9.7117937075675200e-03  -7.1384864604473412e-03  -5.3498830742374050e-03  -4.0647566272175818e-03  -3.1189348684595311e-03  -2.4112854802078683e-03  -1.8751580709177079e-03  -1.4650445370373883e-03  -1.1488885675515685e-03  -9.0359736035577095e-04  -7.1223493406858589e-04  -5.6220107102489324e-04  -4.4400908473268033e-04  -3.5044287100573343e-04  -2.7596221952861841e-04  -2.1627504580700555e-04  -1.6802434157283275e-04  -1.2855533709463108e-04  -9.5739449231967543e-05  -6.7838703869002712e-05  -4.3398978101828873e-05  -2.1163489752795434e-05  -2.4925281265649347e-14  2.1163489744383184e-05  4.3398978077609897e-05  6.7838703850439137e-05  9.5739449203035513e-05  1.2855533705614892e-04  1.6802434152816118e-04  2.1627504575320720e-04  2.7596221946912266e-04  3.5044287095917502e-04  4.4400908469987741e-04  5.6220107099295090e-04  7.1223493404677304e-04  9.0359736034217267e-04  1.1488885675470081e-03  1.4650445370570477e-03  1.8751580709388514e-03  2.4112854802267121e-03  3.1189348684653694e-03  4.0647566272113819e-03  5.3498830742331775e-03  7.1384864604545602e-03  9.7117937075799996e-03  1.3634293308490886e-02  2.0169299465171490e-02  3.1870038538105931e-02  -4.7431329062612174e-02  -3.3004334208330557e-02  -2.3638769215001122e-02  -1.7273749996709675e-02  -1.2872976504487915e-02  -9.7272654425086830e-03  -7.4302360010160950e-03  -5.7226058083531097e-03  -4.4362585976296335e-03  -3.4570179180538323e-03  -2.7052897614355731e-03  -2.1242222968854609e-03  -1.6724482164050161e-03  -1.3194049450169232e-03  -1.0422271286990930e-03  -8.2362496387914210e-04  -6.5040183386608826e-04  -5.1239797111179573e-04  -4.0172459048368994e-04  -3.1219985640408484e-04  -2.3892720605249405e-04  -1.7797515324406208e-04  -1.2612982305527281e-04  -8.0699500359402018e-05  -3.9355844540846468e-05  -5.2899511756699223e-14  3.9355844420453732e-05  8.0699500237401870e-05  1.2612982291755425e-04  1.7797515309174745e-04  2.3892720588567870e-04  3.1219985622798102e-04  4.0172459030401878e-04  5.1239797093005136e-04  6.5040183368365466e-04  8.2362496370429899e-04  1.0422271285323332e-03  1.3194049448589842e-03  1.6724482162647932e-03  2.1242222967682066e-03  2.7052897613291478e-03  3.4570179179604461e-03  4.4362585975470008e-03  5.7226058082866247e-03  7.4302360009718708e-03  9.7272654424912369e-03  1.2872976504492834e-02  1.7273749996908176e-02  2.3638769214716616e-02  3.3004334207596173e-02  4.7431329061992190e-02  -5.7882590887240057e-02  -4.2766273018590935e-02  -3.1723559707136494e-02  -2.3766633824538114e-02  -1.7981975125350113e-02  -1.3730116390711066e-02  -1.0563103689341996e-02  -8.1781660331426559e-03  -6.3648128242634718e-03  -4.9750193674600049e-03  -3.9026445688163502e-03  -3.0704231199099189e-03  -2.4213316374886019e-03  -1.9127911062839658e-03  -1.5126847755667736e-03  -1.1965709849072607e-03  -9.4569831767843491e-04  -7.4556993193440298e-04  -5.8489028013260192e-04  -4.5478196924366885e-04  -3.4819568192071270e-04  -2.5945918107053907e-04  -1.8392683649186511e-04  -1.1770152110227067e-04  -5.7407787713511221e-05  -4.8042966902927616e-14  5.7407787591866251e-05  1.1770152095012435e-04  1.8392683632040407e-04  2.5945918087965698e-04  3.4819568171123508e-04  4.5478196902802446e-04  5.8489027992151893e-04  7.4556993172186531e-04  9.4569831746084160e-04  1.1965709846844270e-03  1.5126847753574933e-03  1.9127911060965736e-03  2.4213316373154874e-03  3.0704231197541450e-03  3.9026445686822587e-03  4.9750193673451810e-03  6.3648128241738022e-03  8.1781660330832277e-03  1.0563103689322270e-02  1.3730116390725312e-02  1.7981975125579940e-02  2.3766633824198219e-02  3.1723559706300614e-02  4.2766273017895595e-02  5.7882590886535412e-02  -6.5412820469652591e-02  -4.9877996949711137e-02  -3.8001556503277384e-02  -2.9030501775062677e-02  -2.2287557051014269e-02  -1.7198205428638546e-02  -1.3336530971235471e-02  -1.0387737801125636e-02  -8.1224786762231840e-03  -6.3726061425482443e-03  -5.0140934985285247e-03  -3.9546693307148818e-03  -3.1251117350459389e-03  -2.4730747576287059e-03  -1.9586801589308971e-03  -1.5513377724873888e-03  -1.2274274834798255e-03  -9.6859124803021094e-04  -7.6046128816744957e-04  -5.9170297877003707e-04  -4.5328645207829842e-04  -3.3792521244789460e-04  -2.3963677052921763e-04  -1.5339188254318695e-04  -7.4826996603423408e-05  -4.9243899702312235e-14  7.4826996488093543e-05  1.5339188238805421e-04  2.3963677033344915e-04  3.3792521222995099e-04  4.5328645185280247e-04  5.9170297853232640e-04  7.6046128791395237e-04  9.6859124777374931e-04  1.2274274832257898e-03  1.5513377722415592e-03  1.9586801586926809e-03  2.4730747574171754e-03  3.1251117348601682e-03  3.9546693305544407e-03  5.0140934984006730e-03  6.3726061424606338e-03  8.1224786761618130e-03  1.0387737801120850e-02  1.3336530971288191e-02  1.7198205428924682e-02  2.2287557050650299e-02  2.9030501774118634e-02  3.8001556502506875e-02  4.9877996948969425e-02  6.5412820468918512e-02  -7.0989771303337765e-02  -5.5247067778112099e-02  -4.2858833843468266e-02  -3.3251560626184749e-02  -2.5845165791436576e-02  -2.0140784707095131e-02  -1.5740344192641090e-02  -1.2336483626019482e-02  -9.6947356607318142e-03  -7.6373581080713699e-03  -6.0296139649131577e-03  -4.7691152729398356e-03  -3.7777496392532362e-03  -2.9956527279838005e-03  -2.3767247053714151e-03  -1.8852910300104916e-03  -1.4936053805499555e-03  -1.1799717201165705e-03  -9.2732246907309651e-04  -7.2213371551742029e-04  -5.5359014675261447e-04  -4.1293518553798143e-04  -2.9295814460849684e-04  -1.8758187765195594e-04  -9.1522683359625216e-05  -8.9182594685900697e-15  9.1522683306476718e-05  1.8758187753849419e-04  2.9295814444479110e-04  4.1293518533032164e-04  5.5359014651505103e-04  7.2213371526725148e-04  9.2732246881867329e-04  1.1799717198579757e-03  1.4936053802965118e-03  1.8852910297736693e-03  2.3767247051579483e-03  2.9956527277780788e-03  3.7777496390634002e-03  4.7691152727812299e-03  6.0296139647954576e-03  7.6373581080029021e-03  9.6947356607566537e-03  1.2336483626096351e-02  1.5740344192985083e-02  2.0140784706733552e-02  2.5845165790431539e-02  3.3251560625368257e-02  4.2858833842692942e-02  5.5247067777355476e-02  7.0989771302568602e-02  -7.5199485851769457e-02  -5.9326531455439882e-02  -4.6628411137023783e-02  -3.6603896478229085e-02  -2.8742600614624112e-02  -2.2592153275344494e-02  -1.7783463447910219e-02  -1.4021418859985424e-02  -1.1074063743496133e-02  -8.7606662452533353e-03  -6.9410502524431036e-03  -5.5066413210634905e-03  -4.3732930502261482e-03  -3.4756731543743626e-03  -2.7629261149442865e-03  -2.1953416814242716e-03  -1.7418000141088772e-03  -1.3778100761316502e-03  -1.0839987203464729e-03  -8.4494122328186076e-04  -6.4824999606847666e-04  -4.8385796587811552e-04  -3.4344792651725233e-04  -2.1999011249036250e-04  -1.0735824474142097e-04  -1.0126930760964328e-15  1.0735824470765283e-04  2.1999011240378340e-04  3.4344792638216741e-04  4.8385796571127096e-04  6.4824999587884059e-04  8.4494122307120700e-04  1.0839987201232729e-03  1.3778100759092120e-03  1.7418000138948910e-03  2.1953416812247896e-03  2.7629261147572226e-03  3.4756731542062410e-03  4.3732930500870138e-03  5.5066413209740993e-03  6.9410502524137200e-03  8.7606662453254824e-03  1.1074063743638870e-02  1.4021418860437769e-02  1.7783463447573655e-02  2.2592153274292495e-02  2.8742600613794900e-02  3.6603896477446961e-02  4.6628411136276630e-02  5.9326531454692806e-02  7.5199485851016018e-02  -7.8416429973517637e-02  -6.2462800069952092e-02  -4.9562181669221800e-02  -3.9260470594042841e-02  -3.1083253954052589e-02  -2.4610949782027797e-02  -1.9496295287922467e-02  -1.5456803899150152e-02  -1.2265840627979148e-02  -9.7433129998698853e-03  -7.7469944765032901e-03  -6.1649551643434752e-03  -4.9092444200534695e-03  -3.9107639821522287e-03  -3.1151796745506025e-03  -2.4796952728075149e-03  -1.9705211225276094e-03  -1.5608924347785872e-03  -1.2295174642247314e-03  -9.5935927858495774e-04  -7.3667482801546445e-04  -5.5025123637083932e-04  -3.9079198278013313e-04  -2.5041543571911111e-04  -1.2223556138671364e-04  5.3998432786821392e-14  1.2223556147116665e-04  2.5041543573603377e-04  3.9079198273630046e-04  5.5025123626454946e-04  7.3667482786206274e-04  9.5935927841300816e-04  1.2295174640486713e-03  1.5608924346150988e-03  1.9705211223909271e-03  2.4796952726943537e-03  3.1151796744644214e-03  3.9107639821018185e-03  4.9092444200610728e-03  6.1649551644214259e-03  7.7469944766623781e-03  9.7433130000945684e-03  1.2265840628556225e-02  1.5456803898855304e-02  1.9496295286808324e-02  2.4610949781158468e-02  3.1083253953252968e-02  3.9260470593301629e-02  4.9562181668496207e-02  6.2462800069231057e-02  7.8416429972785417e-02  -8.0897487690617831e-02  -6.4890462737964574e-02  -5.1855056003432598e-02  -4.1364051171812709e-02  -3.2965470856730864e-02  -2.6260434782479997e-02  -2.0917736791196604e-02  -1.6665471295668727e-02  -1.3282819079181560e-02  -1.0591939563053210e-02  -8.4505027975123430e-03  -6.7450866005254653e-03  -5.3855456527292346e-03  -4.3003313302719271e-03  -3.4326719669307473e-03  -2.7374935370814324e-03  -2.1789567758495531e-03  -1.7284961964041331e-03  -1.3632614728862997e-03  -1.0648777595617070e-03  -8.1845648688258824e-04  -6.1180109559486821e-04  -4.3476282118706377e-04  -2.7871013158155543e-04  -1.3608198796220215e-04  1.1250595453090135e-13  1.3608198815379834e-04  2.7871013171781601e-04  4.3476282125394874e-04  6.1180109560968849e-04  8.1845648685193069e-04  1.0648777595044119e-03  1.3632614728271036e-03  1.7284961963589434e-03  2.1789567758253949e-03  2.7374935370931769e-03  3.4326719669904517e-03  4.3003313303926509e-03  5.3855456529094715e-03  6.7450866007961238e-03  8.4505027978768153e-03  1.0591939563786316e-02  1.3282819078914335e-02  1.6665471294474338e-02  2.0917736790300401e-02  2.6260434781675904e-02  3.2965470855979284e-02  4.1364051171087581e-02  5.1855056002728404e-02  6.4890462737253921e-02  8.0897487689899489e-02  -8.2824252434967466e-02  -6.6781238971710968e-02  -5.3653269886470761e-02  -4.3030787766716920e-02  -3.4475201513014544e-02  -2.7601165430209813e-02  -2.2088715256238126e-02  -1.7674195644863767e-02  -1.4142018722058249e-02  -1.1317065656588379e-02  -9.0578744162305956e-03  -7.2506539291832817e-03  -5.8041479624238281e-03  -4.6453142633765283e-03  -3.7157463296969163e-03  -2.9687449166300307e-03  -2.3669412868046985e-03  -1.8803787388782282e-03  -1.4849684968788236e-03  -1.1612474352210699e-03  -8.9337645608644290e-04  -6.6832863583979579e-04  -4.7522509312150640e-04  -3.0478380284519358e-04  -1.4885234868537006e-04  1.5680026667266726e-13  1.4885234897466936e-04  3.0478380307053546e-04  4.7522509330366635e-04  6.6832863597928685e-04  8.9337645621692544e-04  1.1612474353509406e-03  1.4849684970096983e-03  1.8803787390224082e-03  2.3669412869669363e-03  2.9687449168159588e-03  3.7157463299224880e-03  4.6453142636691510e-03  5.8041479628312739e-03  7.2506539296757922e-03  9.0578744171334723e-03  1.1317065656382609e-02  1.4142018720772198e-02  1.7674195643896242e-02  2.2088715255374668e-02  2.7601165429431827e-02  3.4475201512288701e-02  4.3030787766015058e-02  5.3653269885781972e-02  6.6781238971021603e-02  8.2824252434275367e-02  -8.4328677189692058e-02  -6.8260799891162918e-02  -5.5068052860272991e-02  -4.4352707209911024e-02  -3.5684566457386276e-02  -2.8687107284319578e-02  -2.3048168033076896e-02  -1.8510259780921974e-02  -1.4862107703955263e-02  -1.1931210016714525e-02  -9.5773516485006260e-03  -7.6869851045405727e-03  -6.1684258564670847e-03  -4.9477971605723864e-03  -3.9656475336673595e-03  -3.1741566816887098e-03  -2.5348448396695644e-03  -2.0167048032271764e-03  -1.5946834509097214e-03  -1.2484484842824953e-03  -9.6138519333835741e-04  -7.1977651694368088e-04  -5.1212711070179238e-04  -3.2859839763225588e-04  -1.6052664156795637e-04  2.6941076160334757e-13  1.6052664209306242e-04  3.2859839810699110e-04  5.1212711109490890e-04  7.1977651728869277e-04  9.6138519364425432e-04  1.2484484845766909e-03  1.5946834512150822e-03  2.0167048035445189e-03  2.5348448400050951e-03  3.1741566820674577e-03  3.9656475341175064e-03  4.9477971611249106e-03  6.1684258571076045e-03  7.6869851056085032e-03  9.5773516483216407e-03  1.1931210015344799e-02  1.4862107702968575e-02  1.8510259780029164e-02  2.3048168032258842e-02  2.8687107283557854e-02  3.5684566456658989e-02  4.4352707209213395e-02  5.5068052859585201e-02  6.8260799890482726e-02  8.4328677189015336e-02  -8.5508362722528500e-02  -6.9423024307387726e-02  -5.6184167292456094e-02  -4.5402337265482089e-02  -3.6652697912359818e-02  -2.9564556272140909e-02  -2.3831142395456695e-02  -1.9199480533724719e-02  -1.5461687006250368e-02  -1.2447534045573978e-02  -1.0018106509896863e-02  -8.0603873516753993e-03  -6.4826630691201606e-03  -5.2106535895705382e-03  -4.1842776855434772e-03  -3.3549688187816409e-03  -2.6834610050325974e-03  -2.1379705963665728e-03  -1.6927073648522048e-03  -1.3266562914792718e-03  -1.0225793641359098e-03  -7.6619401744397486e-04  -5.4549132995099421e-04  -3.5016260251775308e-04  -1.7110744318975937e-04  3.6870544432245533e-13  1.7110744391952680e-04  3.5016260321469803e-04  5.4549133059946496e-04  7.6619401803741151e-04  1.0225793646880333e-03  1.3266562920128178e-03  1.6927073653788378e-03  2.1379705969116229e-03  2.6834610056182787e-03  3.3549688194254627e-03  4.1842776862789791e-03  5.2106535903673028e-03  6.4826630703025941e-03  8.0603873515122867e-03  1.0018106508470136e-02  1.2447534044530187e-02  1.5461687005304394e-02  1.9199480532870711e-02  2.3831142394662979e-02  2.9564556271395367e-02  3.6652697911646985e-02  4.5402337264789115e-02  5.6184167291779670e-02  6.9423024306729558e-02  8.5508362721878853e-02  -8.6436525354010960e-02  -7.0338755687766388e-02  -5.7066628250819207e-02  -4.6236643229955854e-02  -3.7427464938681772e-02  -3.0272299479888909e-02  -2.4468109086458138e-02  -1.9765185721002675e-02  -1.5958239957623296e-02  -1.2878913631622200e-02  -1.0389485504869374e-02  -8.3775633069551290e-03  -6.7516161248454389e-03  -5.4372274444623213e-03  -4.3739669240375791e-03  -3.5127909434440815e-03  -2.8138916542289672e-03  -2.2449230518233358e-03  -1.7795410225243612e-03  -1.3962023233619030e-03  -1.0771749151891785e-03  -8.0771880297796225e-04  -5.7540243028271943e-04  -3.6952467011837272e-04  -1.8061654322154273e-04  4.5339635366437097e-13  1.8061654413339810e-04  3.6952467101559778e-04  5.7540243114929230e-04  8.0771880381755963e-04  1.0771749160153989e-03  1.3962023241711567e-03  1.7795410233385287e-03  2.2449230526554297e-03  2.8138916551090801e-03  3.5127909443975645e-03  4.3739669250293179e-03  5.4372274458190720e-03  6.7516161247621453e-03  8.3775633055024716e-03  1.0389485503783775e-02  1.2878913630651960e-02  1.5958239956742035e-02  1.9765185720185770e-02  2.4468109085691594e-02  3.0272299479151468e-02  3.7427464937965664e-02  4.6236643229256455e-02  5.7066628250133603e-02  7.0338755687086085e-02  8.6436525353330559e-02  -8.7168678790991133e-02  -7.1061961727465858e-02  -5.7765556000061898e-02  -4.6900347159312038e-02  -3.8047330266737081e-02  -3.0842350538120188e-02  -2.4984964799117857e-02  -2.0227819677338207e-02  -1.6367578365871809e-02  -1.3237369478957456e-02  -1.0700497155277711e-02  -8.6451835392580036e-03  -6.9801744431585207e-03  -5.6310713027243608e-03  -4.5372765170801441e-03  -3.6494565071149908e-03  -2.9274402928343556e-03  -2.3384825083228819e-03  -1.8558293561197589e-03  -1.4575344719520039e-03  -1.1254791128347164e-03  -8.4455758980372822e-04  -6.0199444753832618e-04  -3.8676457365320236e-04  -1.8909123243347704e-04  5.3357445306719254e-13  1.8909123350595194e-04  3.8676457473040834e-04  6.0199444860255952e-04  8.4455759085925346e-04  1.1254791138825587e-03  1.4575344730131080e-03  1.8558293571950418e-03  2.3384825094343747e-03  2.9274402940039812e-03  3.6494565083324934e-03  4.5372765186539495e-03  5.6310713027697941e-03  6.9801744417301486e-03  8.6451835381645657e-03  1.0700497154273880e-02  1.3237369478054107e-02  1.6367578365044853e-02  2.0227819676559129e-02  2.4984964798379607e-02  3.0842350537395574e-02  3.8047330266027302e-02  4.6900347158618343e-02  5.7765555999382864e-02  7.1061961726797726e-02  8.7168678790320142e-02  -8.7747266164273904e-02  -7.1634052300187115e-02  -5.8319764080030721e-02  -4.7428575704381304e-02  -3.8543060607592293e-02  -3.1300870947442549e-02  -2.5403377268349379e-02  -2.0604920762719074e-02  -1.6703620163869382e-02  -1.3533761702052866e-02  -1.0959495170357044e-02  -8.8695963558350112e-03  -7.1731128361158074e-03  -5.7957448130750919e-03  -4.6768397499364978e-03  -3.7669000375717887e-03  -3.0255189370544263e-03  -2.4196729966003655e-03  -1.9223098486675048e-03  -1.5111793011178577e-03  -1.1678633151181001e-03  -8.7696694760568442e-04  -6.2543779652453877e-04  -4.0198600038364175e-04  -1.9658048675858769e-04  5.6857547099317144e-13  1.9658048793747649e-04  4.0198600161135586e-04  6.2543779777864215e-04  8.7696694887790991e-04  1.1678633164090237e-03  1.5111793024147838e-03  1.9223098499900079e-03  2.4196729979614846e-03  3.0255189384370833e-03  3.7669000392851226e-03  4.6768397500842693e-03  5.7957448116938547e-03  7.1731128350577492e-03  8.8695963548457227e-03  1.0959495169455880e-02  1.3533761701216592e-02  1.6703620163093454e-02  2.0604920761987878e-02  2.5403377267632740e-02  3.1300870946733152e-02  3.8543060606896933e-02  4.7428575703710292e-02  5.8319764079369486e-02  7.1634052299525727e-02  8.7747266163620177e-02  -8.8204945902656789e-02  -7.2086981424269017e-02  -5.8759421182235490e-02  -4.7848939757141801e-02  -3.8939195608410568e-02  -3.1669091133790524e-02  -2.5741272274143804e-02  -2.0911300562807326e-02  -1.6978373597666099e-02  -1.3777666474092972e-02  -1.1174008204115429e-02  -9.0566485341459745e-03  -7.3349242043893445e-03  -5.9346690310565905e-03  -4.7952406986085123e-03  -3.8670593932712319e-03  -3.1095711074432381e-03  -2.4895626656804104e-03  -1.9797671522282308e-03  -1.5577079924939570e-03  -1.2047378696584058e-03  -9.0523527152461681e-04  -6.4592690145327900e-04  -4.1530863587483789e-04  -2.0314126486019299e-04  5.9177393020580974e-13  2.0314126611283427e-04  4.1530863721642050e-04  6.4592690284479123e-04  9.0523527295315823e-04  1.2047378711151555e-03  1.5577079939927984e-03  1.9797671537661503e-03  2.4895626672353298e-03  3.1095711092847924e-03  3.8670593934982218e-03  4.7952406972720752e-03  5.9346690300508455e-03  7.3349242034424734e-03  9.0566485332681940e-03  1.1174008203303795e-02  1.3777666473320778e-02  1.6978373596930926e-02  2.0911300562099857e-02  2.5741272273455882e-02  3.1669091133124959e-02  3.8939195607764876e-02  4.7848939756486429e-02