<?xml version="1.0"?>
<VTKFile type="UnstructuredGrid"  version="0.1"  >
<UnstructuredGrid>
<Piece  NumberOfPoints="129" NumberOfCells="128">
<Points>
<DataArray  type="Float64"  NumberOfComponents="3"  format="ascii">0 0 0  0.0078125 0 0  0.015625 0 0  0.0234375 0 0  0.03125 0 0  0.0390625 0 0  0.046875 0 0  0.0546875 0 0  0.0625 0 0  0.0703125 0 0  0.078125 0 0  0.0859375 0 0  0.09375 0 0  0.1015625 0 0  0.109375 0 0  0.1171875 0 0  0.125 0 0  0.1328125 0 0  0.140625 0 0  0.1484375 0 0  0.15625 0 0  0.1640625 0 0  0.171875 0 0  0.1796875 0 0  0.1875 0 0  0.1953125 0 0  0.203125 0 0  0.2109375 0 0  0.21875 0 0  0.2265625 0 0  0.234375 0 0  0.2421875 0 0  0.25 0 0  0.2578125 0 0  0.265625 0 0  0.2734375 0 0  0.28125 0 0  0.2890625 0 0  0.296875 0 0  0.3046875 0 0  0.3125 0 0  0.3203125 0 0  0.328125 0 0  0.3359375 0 0  0.34375 0 0  0.3515625 0 0  0.359375 0 0  0.3671875 0 0  0.375 0 0  0.3828125 0 0  0.390625 0 0  0.3984375 0 0  0.40625 0 0  0.4140625 0 0  0.421875 0 0  0.4296875 0 0  0.4375 0 0  0.4453125 0 0  0.453125 0 0  0.4609375 0 0  0.46875 0 0  0.4765625 0 0  0.484375 0 0  0.4921875 0 0  0.5 0 0  0.5078125 0 0  0.515625 0 0  0.5234375 0 0  0.53125 0 0  0.5390625 0 0  0.546875 0 0  0.5546875 0 0  0.5625 0 0  0.5703125 0 0  0.578125 0 0  0.5859375 0 0  0.59375 0 0  0.6015625 0 0  0.609375 0 0  0.6171875 0 0  0.625 0 0  0.6328125 0 0  0.640625 0 0  0.6484375 0 0  0.65625 0 0  0.6640625 0 0  0.671875 0 0  0.6796875 0 0  0.6875 0 0  0.6953125 0 0  0.703125 0 0  0.7109375 0 0  0.71875 0 0  0.7265625 0 0  0.734375 0 0  0.7421875 0 0  0.75 0 0  0.7578125 0 0  0.765625 0 0  0.7734375 0 0  0.78125 0 0  0.7890625 0 0  0.796875 0 0  0.8046875 0 0  0.8125 0 0  0.8203125 0 0  0.828125 0 0  0.8359375 0 0  0.84375 0 0  0.8515625 0 0  0.859375 0 0  0.8671875 0 0  0.875 0 0  0.8828125 0 0  0.890625 0 0  0.8984375 0 0  0.90625 0 0  0.9140625 0 0  0.921875 0 0  0.9296875 0 0  0.9375 0 0  0.9453125 0 0  0.953125 0 0  0.9609375 0 0  0.96875 0 0  0.9765625 0 0  0.984375 0 0  0.9921875 0 0  1 0 0  </DataArray>
</Points>
<Cells>
<DataArray  type="UInt32"  Name="connectivity"  format="ascii">0 1  1 2  2 3  3 4  4 5  5 6  6 7  7 8  8 9  9 10  10 11  11 12  12 13  13 14  14 15  15 16  16 17  17 18  18 19  19 20  20 21  21 22  22 23  23 24  24 25  25 26  26 27  27 28  28 29  29 30  30 31  31 32  32 33  33 34  34 35  35 36  36 37  37 38  38 39  39 40  40 41  41 42  42 43  43 44  44 45  45 46  46 47  47 48  48 49  49 50  50 51  51 52  52 53  53 54  54 55  55 56  56 57  57 58  58 59  59 60  60 61  61 62  62 63  63 64  64 65  65 66  66 67  67 68  68 69  69 70  70 71  71 72  72 73  73 74  74 75  75 76  76 77  77 78  78 79  79 80  80 81  81 82  82 83  83 84  84 85  85 86  86 87  87 88  88 89  89 90  90 91  91 92  92 93  93 94  94 95  95 96  96 97  97 98  98 99  99 100  100 101  101 102  102 103  103 104  104 105  105 106  106 107  107 108  108 109  109 110  110 111  111 112  112 113  113 114  114 115  115 116  116 117  117 118  118 119  119 120  120 121  121 122  122 123  123 124  124 125  125 126  126 127  127 128  </DataArray>
<DataArray  type="UInt32"  Name="offsets"  format="ascii">2 4 6 8 10 12 14 16 18 20 22 24 26 28 30 32 34 36 38 40 42 44 46 48 50 52 54 56 58 60 62 64 66 68 70 72 74 76 78 80 82 84 86 88 90 92 94 96 98 100 102 104 106 108 110 112 114 116 118 120 122 124 126 128 130 132 134 136 138 140 142 144 146 148 150 152 154 156 158 160 162 164 166 168 170 172 174 176 178 180 182 184 186 188 190 192 194 196 198 200 202 204 206 208 210 212 214 216 218 220 222 224 226 228 230 232 234 236 238 240 242 244 246 248 250 252 254 256 </DataArray>
<DataArray  type="UInt8"  Name="types"  format="ascii">3 3 3 3 3 3 3 3 3 3 3 3 3 3 3 3 3 3 3 3 3 3 3 3 3 3 3 3 3 3 3 3 3 3 3 3 3 3 3 3 3 3 3 3 3 3 3 3 3 3 3 3 3 3 3 3 3 3 3 3 3 3 3 3 3 3 3 3 3 3 3 3 3 3 3 3 3 3 3 3 3 3 3 3 3 3 3 3 3 3 3 3 3 3 3 3 3 3 3 3 3 3 3 3 3 3 3 3 3 3 3 3 3 3 3 3 3 3 3 3 3 3 3 3 3 3 3 3 </DataArray>
</Cells>
<PointData  Scalars="f_6"> 
<DataArray  type="Float64"  Name="f_6"  format="ascii">0.0000000000000000e+00  4.7139673682599765e+00  8.3146961230254508e+00  9.9518472667219680e+00  9.2387953251128661e+00  6.3439328416364580e+00  1.9509032201612857e+00  -2.9028467725446214e+00  -7.0710678118654746e+00  -9.5694033573220878e+00  -9.8078528040323061e+00  -7.7301045336273742e+00  -3.8268343236509037e+00  9.8017140329560903e-01  5.5557023301960182e+00  8.8192126434835441e+00  1.0000000000000000e+01  8.8192126434835512e+00  5.5557023301960227e+00  9.8017140329562391e-01  -3.8268343236508815e+00  -7.7301045336273706e+00  -9.8078528040323008e+00  -9.5694033573220914e+00  -7.0710678118654844e+00  -2.9028467725446352e+00  1.9509032201612886e+00  6.3439328416364464e+00  9.2387953251128643e+00  9.9518472667219680e+00  8.3146961230254668e+00  4.7139673682599987e+00  6.1232339957367661e-15  -4.7139673682599561e+00  -8.3146961230254490e+00  -9.9518472667219662e+00  -9.2387953251128678e+00  -6.3439328416364704e+00  -1.9509032201613179e+00  2.9028467725446072e+00  7.0710678118654497e+00  9.5694033573220736e+00  9.8078528040323043e+00  7.7301045336273777e+00  3.8268343236509255e+00  -9.8017140329559405e-01  -5.5557023301959978e+00  -8.8192126434835441e+00  -1.0000000000000000e+01  -8.8192126434835707e+00  -5.5557023301960422e+00  -9.8017140329564778e-01  3.8268343236509086e+00  7.7301045336273662e+00  9.8078528040322990e+00  9.5694033573220896e+00  7.0710678118654888e+00  2.9028467725446587e+00  -1.9509032201612653e+00  -6.3439328416364278e+00  -9.2387953251128465e+00  -9.9518472667219715e+00  -8.3146961230254792e+00  -4.7139673682599721e+00  -1.2246467991473532e-14  4.7139673682599508e+00  8.3146961230254259e+00  9.9518472667219662e+00  9.2387953251128696e+00  6.3439328416365015e+00  1.9509032201613243e+00  -2.9028467725446010e+00  -7.0710678118654720e+00  -9.5694033573220718e+00  -9.8078528040323114e+00  -7.7301045336273821e+00  -3.8268343236509641e+00  9.8017140329555252e-01  5.5557023301959925e+00  8.8192126434835423e+00  1.0000000000000000e+01  8.8192126434835725e+00  5.5557023301961070e+00  9.8017140329561847e-01  -3.8268343236509033e+00  -7.7301045336273395e+00  -9.8078528040322990e+00  -9.5694033573221109e+00  -7.0710678118655190e+00  -2.9028467725446641e+00  1.9509032201612591e+00  6.3439328416363958e+00  9.2387953251128447e+00  9.9518472667219786e+00  8.3146961230254632e+00  4.7139673682599774e+00  5.3896838775215300e-14  -4.7139673682599454e+00  -8.3146961230254028e+00  -9.9518472667219680e+00  -9.2387953251128856e+00  -6.3439328416364793e+00  -1.9509032201613652e+00  2.9028467725445610e+00  7.0710678118654924e+00  9.5694033573220807e+00  9.8078528040323061e+00  7.7301045336274088e+00  3.8268343236509375e+00  -9.8017140329551122e-01  -5.5557023301960173e+00  -8.8192126434835227e+00  -1.0000000000000000e+01  -8.8192126434835938e+00  -5.5557023301960822e+00  -9.8017140329558916e-01  3.8268343236508642e+00  7.7301045336273582e+00  9.8078528040322901e+00  9.5694033573221038e+00  7.0710678118655474e+00  2.9028467725446361e+00  -1.9509032201612182e+00  -6.3439328416364189e+00  -9.2387953251128287e+00  -9.9518472667219768e+00  -8.3146961230254455e+00  -4.7139673682600147e+00  -2.4492935982947064e-14  </DataArray> 
</PointData> 
</Piece>
</UnstructuredGrid>
</VTKFile>