<?xml version="1.0"?>
<VTKFile type="UnstructuredGrid"  version="0.1"  >
<UnstructuredGrid>
<Piece  NumberOfPoints="497" NumberOfCells="912">
<Points>
<DataArray  type="Float64"  NumberOfComponents="3"  format="ascii">0 0 0  0.05 0 0  0.1 0 0  0.15 0 0  0.2 0 0  0.25 0 0  0.3 0 0  0.35 0 0  0.4 0 0  0.45 0 0  0.5 0 0  0.55 0 0  0.6 0 0  0.65 0 0  0.7 0 0  0.75 0 0  0.8 0 0  0.85 0 0  0.9 0 0  0.95 0 0  1 0 0  0 0.05 0  0.05 0.05 0  0.1 0.05 0  0.15 0.05 0  0.2 0.05 0  0.25 0.05 0  0.3 0.05 0  0.35 0.05 0  0.4 0.05 0  0.45 0.05 0  0.5 0.05 0  0.55 0.05 0  0.6 0.05 0  0.65 0.05 0  0.7 0.05 0  0.75 0.05 0  0.8 0.05 0  0.85 0.05 0  0.9 0.05 0  0.95 0.05 0  1 0.05 0  0 0.1 0  0.05 0.1 0  0.1 0.1 0  0.15 0.1 0  0.2 0.1 0  0.25 0.1 0  0.3 0.1 0  0.35 0.1 0  0.4 0.1 0  0.45 0.1 0  0.5 0.1 0  0.55 0.1 0  0.6 0.1 0  0.65 0.1 0  0.7 0.1 0  0.75 0.1 0  0.8 0.1 0  0.85 0.1 0  0.9 0.1 0  0.95 0.1 0  1 0.1 0  0 0.15 0  0.05 0.15 0  0.1 0.15 0  0.15 0.15 0  0.2 0.15 0  0.25 0.15 0  0.3 0.15 0  0.35 0.15 0  0.4 0.15 0  0.45 0.15 0  0.5 0.15 0  0.55 0.15 0  0.6 0.15 0  0.65 0.15 0  0.7 0.15 0  0.75 0.15 0  0.8 0.15 0  0.85 0.15 0  0.9 0.15 0  0.95 0.15 0  1 0.15 0  0 0.2 0  0.05 0.2 0  0.1 0.2 0  0.15 0.2 0  0.2 0.2 0  0.25 0.2 0  0.3 0.2 0  0.35 0.2 0  0.4 0.2 0  0.45 0.2 0  0.5 0.2 0  0.55 0.2 0  0.6 0.2 0  0.65 0.2 0  0.7 0.2 0  0.75 0.2 0  0.8 0.2 0  0.85 0.2 0  0.9 0.2 0  0.95 0.2 0  1 0.2 0  0 0.25 0  0.05 0.25 0  0.1 0.25 0  0.15 0.25 0  0.2 0.25 0  0.25 0.25 0  0.3 0.25 0  0.35 0.25 0  0.4 0.25 0  0.45 0.25 0  0.5 0.25 0  0.55 0.25 0  0.6 0.25 0  0.65 0.25 0  0.7 0.25 0  0.75 0.25 0  0.8 0.25 0  0.85 0.25 0  0.9 0.25 0  0.95 0.25 0  1 0.25 0  0 0.3 0  0.05 0.3 0  0.1 0.3 0  0.15 0.3 0  0.2 0.3 0  0.25 0.3 0  0.3 0.3 0  0.35 0.3 0  0.4 0.3 0  0.45 0.3 0  0.5 0.3 0  0.55 0.3 0  0.6 0.3 0  0.65 0.3 0  0.7 0.3 0  0.75 0.3 0  0.8 0.3 0  0.85 0.3 0  0.9 0.3 0  0.95 0.3 0  1 0.3 0  0 0.35 0  0.05 0.35 0  0.1 0.35 0  0.15 0.35 0  0.2 0.35 0  0.25 0.35 0  0.3 0.35 0  0.35 0.35 0  0.4 0.35 0  0.45 0.35 0  0.5 0.35 0  0.55 0.35 0  0.6 0.35 0  0.65 0.35 0  0.7 0.35 0  0.75 0.35 0  0.8 0.35 0  0.85 0.35 0  0.9 0.35 0  0.95 0.35 0  1 0.35 0  0 0.4 0  0.05 0.4 0  0.1 0.4 0  0.15 0.4 0  0.2 0.4 0  0.25 0.4 0  0.3 0.4 0  0.35 0.4 0  0.4 0.4 0  0.45 0.4 0  0.5 0.4 0  0.55 0.4 0  0.6 0.4 0  0.65 0.4 0  0.7 0.4 0  0.75 0.4 0  0.8 0.4 0  0.85 0.4 0  0.9 0.4 0  0.95 0.4 0  1 0.4 0  0 0.45 0  0.05 0.45 0  0.1 0.45 0  0.15 0.45 0  0.2 0.45 0  0.25 0.45 0  0.3 0.45 0  0.35 0.45 0  0.4 0.45 0  0.45 0.45 0  0.5 0.45 0  0.55 0.45 0  0.6 0.45 0  0.65 0.45 0  0.7 0.45 0  0.75 0.45 0  0.8 0.45 0  0.85 0.45 0  0.9 0.45 0  0.95 0.45 0  1 0.45 0  0 0.5 0  0.05 0.5 0  0.1 0.5 0  0.15 0.5 0  0.2 0.5 0  0.25 0.5 0  0.3 0.5 0  0.35 0.5 0  0.4 0.5 0  0.45 0.5 0  0.5 0.5 0  0.55 0.5 0  0.6 0.5 0  0.65 0.5 0  0.7 0.5 0  0.75 0.5 0  0.8 0.5 0  0.85 0.5 0  0.9 0.5 0  0.95 0.5 0  1 0.5 0  0 0.55 0  0.05 0.55 0  0.1 0.55 0  0.15 0.55 0  0.2 0.55 0  0.25 0.55 0  0.3 0.55 0  0.35 0.55 0  0.4 0.55 0  0.45 0.55 0  0.5 0.55 0  0.55 0.55 0  0.6 0.55 0  0.65 0.55 0  0.7 0.55 0  0.75 0.55 0  0.8 0.55 0  0.85 0.55 0  0.9 0.55 0  0.95 0.55 0  1 0.55 0  0 0.6 0  0.05 0.6 0  0.1 0.6 0  0.15 0.6 0  0.2 0.6 0  0.25 0.6 0  0.3 0.6 0  0.35 0.6 0  0.4 0.6 0  0.45 0.6 0  0.5 0.6 0  0.55 0.6 0  0.6 0.6 0  0.65 0.6 0  0.7 0.6 0  0.75 0.6 0  0.8 0.6 0  0.85 0.6 0  0.9 0.6 0  0.95 0.6 0  1 0.6 0  0 0.65 0  0.05 0.65 0  0.1 0.65 0  0.15 0.65 0  0.2 0.65 0  0.25 0.65 0  0.3 0.65 0  0.35 0.65 0  0.4 0.65 0  0.45 0.65 0  0.5 0.65 0  0.55 0.65 0  0.6 0.65 0  0.65 0.65 0  0.7 0.65 0  0.75 0.65 0  0.8 0.65 0  0.85 0.65 0  0.9 0.65 0  0.95 0.65 0  1 0.65 0  0 0.7 0  0.05 0.7 0  0.1 0.7 0  0.15 0.7 0  0.2 0.7 0  0.25 0.7 0  0.3 0.7 0  0.35 0.7 0  0.4 0.7 0  0.45 0.7 0  0.5 0.7 0  0.55 0.7 0  0.6 0.7 0  0.65 0.7 0  0.7 0.7 0  0.75 0.7 0  0.8 0.7 0  0.85 0.7 0  0.9 0.7 0  0.95 0.7 0  1 0.7 0  0 0.75 0  0.05 0.75 0  0.1 0.75 0  0.15 0.75 0  0.2 0.75 0  0.25 0.75 0  0.3 0.75 0  0.35 0.75 0  0.4 0.75 0  0.45 0.75 0  0.5 0.75 0  0.55 0.75 0  0.6 0.75 0  0.65 0.75 0  0.7 0.75 0  0.75 0.75 0  0.8 0.75 0  0.85 0.75 0  0.9 0.75 0  0.95 0.75 0  1 0.75 0  0 0.8 0  0.05 0.8 0  0.1 0.8 0  0.15 0.8 0  0.2 0.8 0  0.25 0.8 0  0.3 0.8 0  0.35 0.8 0  0.4 0.8 0  0.45 0.8 0  0.5 0.8 0  0.55 0.8 0  0.6 0.8 0  0.65 0.8 0  0.7 0.8 0  0.75 0.8 0  0.8 0.8 0  0.85 0.8 0  0.9 0.8 0  0.95 0.8 0  1 0.8 0  0 0.85 0  0.05 0.85 0  0.1 0.85 0  0.15 0.85 0  0.2 0.85 0  0.25 0.85 0  0.3 0.85 0  0.35 0.85 0  0.4 0.85 0  0.45 0.85 0  0.5 0.85 0  0.55 0.85 0  0.6 0.85 0  0.65 0.85 0  0.7 0.85 0  0.75 0.85 0  0.8 0.85 0  0.85 0.85 0  0.9 0.85 0  0.95 0.85 0  1 0.85 0  0 0.9 0  0.05 0.9 0  0.1 0.9 0  0.15 0.9 0  0.2 0.9 0  0.25 0.9 0  0.3 0.9 0  0.35 0.9 0  0.4 0.9 0  0.45 0.9 0  0.5 0.9 0  0.55 0.9 0  0.6 0.9 0  0.65 0.9 0  0.7 0.9 0  0.75 0.9 0  0.8 0.9 0  0.85 0.9 0  0.9 0.9 0  0.95 0.9 0  1 0.9 0  0 0.95 0  0.05 0.95 0  0.1 0.95 0  0.15 0.95 0  0.2 0.95 0  0.25 0.95 0  0.3 0.95 0  0.35 0.95 0  0.4 0.95 0  0.45 0.95 0  0.5 0.95 0  0.55 0.95 0  0.6 0.95 0  0.65 0.95 0  0.7 0.95 0  0.75 0.95 0  0.8 0.95 0  0.85 0.95 0  0.9 0.95 0  0.95 0.95 0  1 0.95 0  0 1 0  0.05 1 0  0.1 1 0  0.15 1 0  0.2 1 0  0.25 1 0  0.3 1 0  0.35 1 0  0.4 1 0  0.45 1 0  0.5 1 0  0.55 1 0  0.6 1 0  0.65 1 0  0.7 1 0  0.75 1 0  0.8 1 0  0.85 1 0  0.9 1 0  0.95 1 0  1 1 0  0.475 0.375 0  0.525 0.375 0  0.425 0.425 0  0.475 0.4 0  0.45 0.425 0  0.475 0.425 0  0.525 0.4 0  0.5 0.425 0  0.525 0.425 0  0.55 0.425 0  0.575 0.425 0  0.375 0.475 0  0.425 0.45 0  0.4 0.475 0  0.425 0.475 0  0.475 0.45 0  0.45 0.475 0  0.475 0.475 0  0.525 0.45 0  0.5 0.475 0  0.525 0.475 0  0.575 0.45 0  0.55 0.475 0  0.575 0.475 0  0.6 0.475 0  0.625 0.475 0  0.375 0.525 0  0.425 0.5 0  0.4 0.525 0  0.425 0.525 0  0.475 0.5 0  0.45 0.525 0  0.475 0.525 0  0.525 0.5 0  0.5 0.525 0  0.525 0.525 0  0.575 0.5 0  0.55 0.525 0  0.575 0.525 0  0.6 0.525 0  0.625 0.525 0  0.425 0.55 0  0.425 0.575 0  0.475 0.55 0  0.45 0.575 0  0.475 0.575 0  0.525 0.55 0  0.5 0.575 0  0.525 0.575 0  0.575 0.55 0  0.55 0.575 0  0.575 0.575 0  0.475 0.6 0  0.475 0.625 0  0.525 0.6 0  0.525 0.625 0  </DataArray>
</Points>
<Cells>
[...]
<PointData  Scalars="f_33"> 
<DataArray  type="Float64"  Name="f_33"  format="ascii">5.8142853445993714e-01  5.6041452115350554e-01  5.3650940831734939e-01  5.1256334369358725e-01  4.8995341172105955e-01  4.6931845488407281e-01  4.5126081539917234e-01  4.3643002526366831e-01  4.2545189170907455e-01  4.1885511381175222e-01  4.1700279492073711e-01  4.1996919617224632e-01  4.2741959655620049e-01  4.3901738664699835e-01  4.5425478024048049e-01  4.7251920007370357e-01  4.9318999347527154e-01  5.1570392362771011e-01  5.3941737941214951e-01  5.6281000605755227e-01  5.8269164764837689e-01  5.6041452114586965e-01  5.4390958766716346e-01  5.2017374722221232e-01  4.9489812555269941e-01  4.7062117795100933e-01  4.4835198620255212e-01  4.2880521552888523e-01  4.1271696995475521e-01  4.0081257461344100e-01  3.9371199675114504e-01  3.9183357494835391e-01  3.9525658636164790e-01  4.0362282328245230e-01  4.1647372000870536e-01  4.3319689857632981e-01  4.5308091842446252e-01  4.7541472214462710e-01  4.9950675278748974e-01  5.2434662387577513e-01  5.4742585391687493e-01  5.6320609723518877e-01  5.3650940825254068e-01  5.2017374707566866e-01  4.9542542760898189e-01  4.6820660262935293e-01  4.4158044983086042e-01  4.1689108011903253e-01  3.9504866317573539e-01  3.7695901554126865e-01  3.6352957745505687e-01  3.5555632170677559e-01  3.5357775101358946e-01  3.5770526054478985e-01  3.6749145936105271e-01  3.8230232798066455e-01  4.0133070841830959e-01  4.2368780414791091e-01  4.4850448634997514e-01  4.7492050811674130e-01  5.0163751741600127e-01  5.2561932726307137e-01  5.4085388176920424e-01  5.1256334334535847e-01  4.9489812449445475e-01  4.6820660135189096e-01  4.3843456822432730e-01  4.0886457046307201e-01  3.8106554169319623e-01  3.5616400459457187e-01  3.3530286837282802e-01  3.1967268524426939e-01  3.1036570178477735e-01  3.0813905454458718e-01  3.1316018158599751e-01  3.2483505693884002e-01  3.4225752921710645e-01  3.6433735800268680e-01  3.8990527461631436e-01  4.1787517801618701e-01  4.4720382702462175e-01  4.7638642271147330e-01  5.0210717680511252e-01  5.1811236984421249e-01  4.8995340963788053e-01  4.7062117068436687e-01  4.4158043980834855e-01  4.0886455947281125e-01  3.7589185354595966e-01  3.4440842242089353e-01  3.1573418953541138e-01  2.9130519300065516e-01  2.7272559916786843e-01  2.6156230264032682e-01  2.5890785613627304e-01  2.6503012077933669e-01  2.7913225445347301e-01  2.9988465090772654e-01  3.2574099459943168e-01  3.5517550407961573e-01  3.8683014843163743e-01  4.1948196590427600e-01  4.5146819601989119e-01  4.7928833381377045e-01  4.9648642262504650e-01  4.6931843869346329e-01  4.4835193346483943e-01  4.1689100917626448e-01  3.8106545372311107e-01  3.4440832803192040e-01  3.0876835618545012e-01  2.7564381708562102e-01  2.4679089940457966e-01  2.2441215392281005e-01  2.1084468051484978e-01  2.0755740306486004e-01  2.1496409358237287e-01  2.3213644439389958e-01  2.5708792659419422e-01  2.8753605284368861e-01  3.2144302217106130e-01  3.5719010919850103e-01  3.9340601745547760e-01  4.2832209251047626e-01  4.5830730634628936e-01  4.7674919185480130e-01  4.5126067722403801e-01  4.2880484770240945e-01  3.9504819588114165e-01  3.5616343089097163e-01  3.1573349443834381e-01  2.7564311695943133e-01  2.3748732296728980e-01  2.0341075799939626e-01  1.7646161198773913e-01  1.6031223485141682e-01  1.5617525705706889e-01  1.6459793696296893e-01  1.8532749153615244e-01  2.1539266072094854e-01  2.5127886044511027e-01  2.9020720244741344e-01  3.3029247552596208e-01  3.7012110364229756e-01  4.0790070529211087e-01  4.3993307970235457e-01  4.5951820778162167e-01  4.3642894010986139e-01  4.1271469777170766e-01  3.7695629736816028e-01  3.3529963046409367e-01  2.9130125914345950e-01  2.4678641948677474e-01  2.0340675666853641e-01  1.6377198354431952e-01  1.3218370157382320e-01  1.1524959594975150e-01  1.1021388032871859e-01  1.1742970079404665e-01  1.4126196869827476e-01  1.7699093208390212e-01  2.1887511861834083e-01  2.6308544909862941e-01  3.0747856241245314e-01  3.5070563078544653e-01  3.9106216744626010e-01  4.2486398047301760e-01  4.4539880045197217e-01  4.2544479335631197e-01  4.0080080867611689e-01  3.6351622504432746e-01  3.1965721335308078e-01  2.7270704186624339e-01  2.2439075195871455e-01  1.7644001739139029e-01  1.3216843709572224e-01  9.6948147836717860e-02  7.6253224497550925e-02  7.0779161031909066e-02  8.2187601160489565e-02  1.0469487931054471e-01  1.4550139133217035e-01  1.9299134032134907e-01  2.4202654588758907e-01  2.9018414075964316e-01  3.3622755082159711e-01  3.7861603228003243e-01  4.1374576806698993e-01  4.3495630950022718e-01  4.1881930630999342e-01  3.9366357710772215e-01  3.5550337345691652e-01  3.1030535706913026e-01  2.6149056738320420e-01  2.1076147988350014e-01  1.6022540777357400e-01  1.1518070182346393e-01  7.6226904469466839e-02  4.1673117821181521e-02  2.1121583047597290e-02  4.4317418998068209e-02  8.5720371294498429e-02  1.2607927958744369e-01  1.7687474983442128e-01  2.2911387119354845e-01  2.7978261518548808e-01  3.2762032268027519e-01  3.7122465296079749e-01  4.0709701308518703e-01  4.2864464619082698e-01  4.1687615515120879e-01  3.9168629786683351e-01  3.5341857587187320e-01  3.0795788367037974e-01  2.5869279414842078e-01  2.0730477309329726e-01  1.5589707199821309e-01  1.0993896663870451e-01  7.0643467295639056e-02  2.1880346503575322e-02  -2.0254423027716382e-03  2.2553056254031718e-02  7.7177096991779437e-02  1.2290057269772443e-01  1.7278857762032199e-01  2.2562265656267685e-01  2.7699580262753687e-01  3.2535944664038852e-01  3.6926043310751450e-01  4.0521961294887276e-01  4.2673737267688566e-01  4.1969886098126274e-01  3.9496057033007786e-01  3.5737780132780983e-01  3.1278270383121032e-01  2.6458193212794434e-01  2.1443511566315740e-01  1.6400202526775837e-01  1.1682001582403373e-01  8.1661883022095122e-02  4.4514894177978145e-02  2.3008612682739380e-02  4.6238624639843372e-02  8.7759964245965327e-02  1.3232639478832198e-01  1.8077194703857968e-01  2.3211916965753018e-01  2.8225384994325375e-01  3.2966028228479488e-01  3.7281981348062132e-01  4.0819272397871903e-01  4.2931098425480613e-01  4.2711732744633024e-01  4.0327425635141023e-01  3.6708759422465737e-01  3.2436171990802820e-01  2.7857076280169524e-01  2.3147484659739054e-01  1.8457475248391164e-01  1.4046688952256681e-01  1.0394999297686125e-01  8.5080265472050748e-02  7.6791117175810553e-02  8.7641768511342449e-02  1.1430323065238744e-01  1.5402973698597630e-01  2.0021038215312822e-01  2.4818855213967581e-01  2.9536685669218898e-01  3.4043737007761066e-01  3.8180036705679965e-01  4.1588215518043703e-01  4.3624637826073892e-01  4.3874084628168553e-01  4.1614470931419467e-01  3.8191226950044149e-01  3.4179772445096379e-01  2.9934230071228762e-01  2.5645192482155588e-01  2.1466292679726517e-01  1.7618945711577577e-01  1.4467101912963420e-01  1.2524848590882881e-01  1.2239083684542770e-01  1.3219110606065670e-01  1.5399530065496989e-01  1.8842833396913006e-01  2.2897185541870685e-01  2.7183223472526513e-01  3.1484709535970684e-01  3.5665938602242464e-01  3.9553576219970005e-01  4.2784670109630879e-01  4.4719502150915746e-01  4.5402170225290750e-01  4.3291641300434291e-01  4.0099473950258546e-01  3.6394090313848615e-01  3.2527770208897400e-01  2.8699836697143494e-01  2.5066211396963894e-01  2.1818208944552261e-01  1.9222950232614761e-01  1.7606244408537153e-01  1.7228963663637922e-01  1.8068835768591315e-01  2.0019282472405667e-01  2.2897736590970877e-01  2.6342013051815139e-01  3.0075977959718186e-01  3.3917857910228744e-01  3.7728934180290169e-01  4.1327842368720330e-01  4.4350769997372902e-01  4.6166573984000364e-01  4.7233287436462490e-01  4.5285642586828956e-01  4.2341624626306279e-01  3.8958357256104464e-01  3.5480339140036871e-01  3.2101836259435473e-01  2.8972603519760776e-01  2.6254265214855399e-01  2.4141079946005142e-01  2.2842760531243450e-01  2.2522353855789234e-01  2.3211401069136206e-01  2.4821453415449210e-01  2.7186215948356424e-01  3.0077872236533776e-01  3.3297440135017919e-01  3.6690120993366510e-01  4.0125532130262137e-01  4.3421818586844391e-01  4.6221520183878784e-01  4.7908935439992212e-01  4.9305043382183195e-01  4.7524735203322277e-01  4.4829744125614412e-01  4.1762531654341900e-01  3.8654203639247331e-01  3.5686724305109335e-01  3.2993435959927964e-01  3.0707971357127767e-01  2.8972933663629213e-01  2.7927034469031103e-01  2.7671999574803152e-01  2.8232332063652515e-01  2.9543795545748630e-01  3.1490398996163105e-01  3.3921864330794477e-01  3.6692159471317437e-01  3.9676479107305618e-01  4.2754511349096536e-01  4.5754110773923479e-01  4.8329668321950819e-01  4.9887161457370482e-01  5.1561330557929086e-01  4.9939826497372791e-01  4.7477700140221546e-01  4.4702018816920047e-01  4.1926585380267178e-01  3.9316549429114006e-01  3.6985965880388588e-01  3.5042159386099486e-01  3.3591322149295882e-01  3.2728457568211650e-01  3.2518405565983988e-01  3.2975332853269479e-01  3.4053050451283534e-01  3.5673463700481062e-01  3.7734711879458105e-01  4.0129498141564918e-01  4.2756586787689549e-01  4.5512235225482972e-01  4.8235879013008875e-01  5.0601732890172324e-01  5.2040191109496181e-01  5.3937893895962497e-01  5.2429725465684507e-01  5.0155459446368322e-01  4.7626203147222140e-01  4.5131161830490063e-01  4.2814423929068463e-01  4.0770785988507180e-01  3.9085663636653678e-01  3.7839905273033358e-01  3.7101476443056608e-01  3.6914559000087083e-01  3.7288043351524447e-01  3.8188566645252880e-01  3.9561536161078392e-01  4.1334637859892859e-01  4.3427251770449832e-01  4.5757993861990209e-01  4.8237873415195398e-01  5.0726145624028718e-01  5.2924362484449716e-01  5.4290232913283820e-01  5.6281309551928860e-01  5.4742141285369128e-01  5.2558236293040761e-01  5.0202796895229029e-01  4.7917678152689303e-01  4.5817505438068712e-01  4.3978703696079607e-01  4.2470778786308849e-01  4.1358331993214020e-01  4.0694467534565132e-01  4.0512784270511537e-01  4.0821305136426456e-01  4.1594572319643858e-01  4.2791676322872013e-01  4.4357250528260733e-01  4.6227114110217715e-01  4.8334117005578342e-01  5.0604628452854750e-01  5.2925452447442201e-01  5.5051410563462455e-01  5.6488823217380124e-01  5.8270309727718950e-01  5.6321437138514829e-01  5.4083319721026168e-01  5.1805423911265269e-01  4.9640141845507979e-01  4.7664736748825554e-01  4.5940493186550546e-01  4.4527690975896095e-01  4.3482816499901628e-01  4.2852037787317254e-01  4.2665314681418803e-01  4.2931860829030294e-01  4.3629732510103836e-01  4.4725279556009823e-01  4.6171935473380987e-01  4.7913629029122723e-01  4.9891042021327392e-01  5.2042965512398198e-01  5.4291541021254652e-01  5.6488976773838151e-01  5.8390259522344679e-01  9.3687613841998363e-02  9.5467241349798865e-02  7.3184216709070396e-02  7.4865410133546959e-02  6.1645408740515391e-02  5.0177194677102112e-02  7.7075670604238034e-02  4.8922551781605456e-02  5.1690555753580079e-02  6.5428261603580048e-02  7.9066405987720773e-02  9.3583098977072135e-02  6.1647495168538319e-02  7.4812425259729212e-02  5.0218414850751479e-02  2.9079362764995103e-02  2.9253309186636756e-02  9.1642985226345723e-03  2.9246903455649734e-02  3.6772049916947709e-03  5.5208897942010168e-03  6.6852297368587124e-02  3.0229580706078812e-02  5.4421288131364869e-02  8.1618397470860610e-02  1.0277994997878236e-01  9.5030182209749445e-02  4.9071597347875043e-02  7.6749372277916200e-02  5.1758411499850138e-02  7.0937183920338131e-03  3.0440489567787131e-02  9.8206325116243238e-03  1.4462167887061195e-03  3.8711890962987725e-03  2.8986969089043555e-03  5.2690565789239890e-02  3.0303857814512572e-02  5.5306219549521030e-02  8.2699271117161924e-02  1.0471827723503221e-01  6.5110789235947403e-02  7.8480530453078026e-02  3.1308377546486306e-02  6.6474806510416276e-02  5.4335690031651319e-02  3.0360711675562157e-02  5.2583279073172201e-02  5.5199989094219401e-02  6.9061650235445693e-02  6.9002066229269285e-02  8.3747417427342388e-02  8.1086947652651786e-02  1.0208811247129274e-01  8.2466010580706572e-02  1.0444822158639609e-01  </DataArray> 
</PointData> 
</Piece>
</UnstructuredGrid>
</VTKFile>