<?xml version="1.0"?>
<VTKFile type="UnstructuredGrid"  version="0.1"  >
<UnstructuredGrid>
<Piece  NumberOfPoints="145" NumberOfCells="248">
<Points>
<DataArray  type="Float64"  NumberOfComponents="3"  format="ascii">0 0 0  0.1 0 0  0.2 0 0  0.3 0 0  0.4 0 0  0.5 0 0  0.6 0 0  0.7 0 0  0.8 0 0  0.9 0 0  1 0 0  0 0.1 0  0.1 0.1 0  0.2 0.1 0  0.3 0.1 0  0.4 0.1 0  0.5 0.1 0  0.6 0.1 0  0.7 0.1 0  0.8 0.1 0  0.9 0.1 0  1 0.1 0  0 0.2 0  0.1 0.2 0  0.2 0.2 0  0.3 0.2 0  0.4 0.2 0  0.5 0.2 0  0.6 0.2 0  0.7 0.2 0  0.8 0.2 0  0.9 0.2 0  1 0.2 0  0 0.3 0  0.1 0.3 0  0.2 0.3 0  0.3 0.3 0  0.4 0.3 0  0.5 0.3 0  0.6 0.3 0  0.7 0.3 0  0.8 0.3 0  0.9 0.3 0  1 0.3 0  0 0.4 0  0.1 0.4 0  0.2 0.4 0  0.3 0.4 0  0.4 0.4 0  0.5 0.4 0  0.6 0.4 0  0.7 0.4 0  0.8 0.4 0  0.9 0.4 0  1 0.4 0  0 0.5 0  0.1 0.5 0  0.2 0.5 0  0.3 0.5 0  0.4 0.5 0  0.5 0.5 0  0.6 0.5 0  0.7 0.5 0  0.8 0.5 0  0.9 0.5 0  1 0.5 0  0 0.6 0  0.1 0.6 0  0.2 0.6 0  0.3 0.6 0  0.4 0.6 0  0.5 0.6 0  0.6 0.6 0  0.7 0.6 0  0.8 0.6 0  0.9 0.6 0  1 0.6 0  0 0.7 0  0.1 0.7 0  0.2 0.7 0  0.3 0.7 0  0.4 0.7 0  0.5 0.7 0  0.6 0.7 0  0.7 0.7 0  0.8 0.7 0  0.9 0.7 0  1 0.7 0  0 0.8 0  0.1 0.8 0  0.2 0.8 0  0.3 0.8 0  0.4 0.8 0  0.5 0.8 0  0.6 0.8 0  0.7 0.8 0  0.8 0.8 0  0.9 0.8 0  1 0.8 0  0 0.9 0  0.1 0.9 0  0.2 0.9 0  0.3 0.9 0  0.4 0.9 0  0.5 0.9 0  0.6 0.9 0  0.7 0.9 0  0.8 0.9 0  0.9 0.9 0  1 0.9 0  0 1 0  0.1 1 0  0.2 1 0  0.3 1 0  0.4 1 0  0.5 1 0  0.6 1 0  0.7 1 0  0.8 1 0  0.9 1 0  1 1 0  0.45 0.35 0  0.55 0.35 0  0.35 0.45 0  0.45 0.4 0  0.4 0.45 0  0.45 0.45 0  0.55 0.4 0  0.5 0.45 0  0.55 0.45 0  0.6 0.45 0  0.6499999999999999 0.45 0  0.35 0.55 0  0.45 0.5 0  0.4 0.55 0  0.45 0.55 0  0.55 0.5 0  0.5 0.55 0  0.55 0.55 0  0.6 0.55 0  0.6499999999999999 0.55 0  0.45 0.6 0  0.45 0.6499999999999999 0  0.55 0.6 0  0.55 0.6499999999999999 0  </DataArray>
</Points>
<Cells>
<DataArray  type="UInt32"  Name="connectivity"  format="ascii">0 1 12  0 11 12  1 2 13  1 12 13  2 3 14  2 13 14  3 4 15  3 14 15  4 5 16  4 15 16  5 6 17  5 16 17  6 7 18  6 17 18  7 8 19  7 18 19  8 9 20  8 19 20  9 10 21  9 20 21  11 12 23  11 22 23  12 13 24  12 23 24  13 14 25  13 24 25  14 15 26  14 25 26  15 16 27  15 26 27  16 17 28  16 27 28  17 18 29  17 28 29  18 19 30  18 29 30  19 20 31  19 30 31  20 21 32  20 31 32  22 23 34  22 33 34  23 24 35  23 34 35  24 25 36  24 35 36  25 26 37  25 36 37  26 27 38  26 37 38  27 28 39  27 38 39  28 29 40  28 39 40  29 30 41  29 40 41  30 31 42  30 41 42  31 32 43  31 42 43  33 34 45  33 44 45  34 35 46  34 45 46  35 36 47  35 46 47  36 37 48  36 47 48  37 38 121  38 49 121  37 48 121  48 121 124  49 121 124  38 39 122  39 50 122  38 49 122  49 122 127  50 122 127  39 40 51  39 50 51  40 41 52  40 51 52  41 42 53  41 52 53  42 43 54  42 53 54  44 45 56  44 55 56  45 46 57  45 56 57  46 47 58  46 57 58  47 48 123  48 123 125  59 123 125  47 58 123  58 59 123  49 124 126  48 124 126  49 126 128  60 126 128  59 125 126  48 125 126  59 126 133  60 126 133  50 127 129  49 127 129  50 129 130  61 129 130  60 128 129  49 128 129  60 129 136  61 129 136  50 51 131  51 62 131  61 130 131  50 130 131  61 62 131  51 52 63  51 62 63  52 53 64  52 63 64  53 54 65  53 64 65  55 56 67  55 66 67  56 57 68  56 67 68  57 58 69  57 68 69  58 59 132  59 132 134  70 132 134  58 69 132  69 70 132  60 133 135  59 133 135  60 135 137  71 135 137  70 134 135  59 134 135  70 135 141  71 135 141  61 136 138  60 136 138  61 138 139  72 138 139  71 137 138  60 137 138  71 138 143  72 138 143  61 62 140  62 73 140  72 139 140  61 139 140  72 73 140  62 63 74  62 73 74  63 64 75  63 74 75  64 65 76  64 75 76  66 67 78  66 77 78  67 68 79  67 78 79  68 69 80  68 79 80  69 70 81  69 80 81  71 141 142  70 141 142  71 82 142  70 81 142  81 82 142  72 143 144  71 143 144  72 83 144  71 82 144  82 83 144  72 73 84  72 83 84  73 74 85  73 84 85  74 75 86  74 85 86  75 76 87  75 86 87  77 78 89  77 88 89  78 79 90  78 89 90  79 80 91  79 90 91  80 81 92  80 91 92  81 82 93  81 92 93  82 83 94  82 93 94  83 84 95  83 94 95  84 85 96  84 95 96  85 86 97  85 96 97  86 87 98  86 97 98  88 89 100  88 99 100  89 90 101  89 100 101  90 91 102  90 101 102  91 92 103  91 102 103  92 93 104  92 103 104  93 94 105  93 104 105  94 95 106  94 105 106  95 96 107  95 106 107  96 97 108  96 107 108  97 98 109  97 108 109  99 100 111  99 110 111  100 101 112  100 111 112  101 102 113  101 112 113  102 103 114  102 113 114  103 104 115  103 114 115  104 105 116  104 115 116  105 106 117  105 116 117  106 107 118  106 117 118  107 108 119  107 118 119  108 109 120  108 119 120  </DataArray>
<DataArray  type="UInt32"  Name="offsets"  format="ascii">3 6 9 12 15 18 21 24 27 30 33 36 39 42 45 48 51 54 57 60 63 66 69 72 75 78 81 84 87 90 93 96 99 102 105 108 111 114 117 120 123 126 129 132 135 138 141 144 147 150 153 156 159 162 165 168 171 174 177 180 183 186 189 192 195 198 201 204 207 210 213 216 219 222 225 228 231 234 237 240 243 246 249 252 255 258 261 264 267 270 273 276 279 282 285 288 291 294 297 300 303 306 309 312 315 318 321 324 327 330 333 336 339 342 345 348 351 354 357 360 363 366 369 372 375 378 381 384 387 390 393 396 399 402 405 408 411 414 417 420 423 426 429 432 435 438 441 444 447 450 453 456 459 462 465 468 471 474 477 480 483 486 489 492 495 498 501 504 507 510 513 516 519 522 525 528 531 534 537 540 543 546 549 552 555 558 561 564 567 570 573 576 579 582 585 588 591 594 597 600 603 606 609 612 615 618 621 624 627 630 633 636 639 642 645 648 651 654 657 660 663 666 669 672 675 678 681 684 687 690 693 696 699 702 705 708 711 714 717 720 723 726 729 732 735 738 741 744 </DataArray>
<DataArray  type="UInt8"  Name="types"  format="ascii">5 5 5 5 5 5 5 5 5 5 5 5 5 5 5 5 5 5 5 5 5 5 5 5 5 5 5 5 5 5 5 5 5 5 5 5 5 5 5 5 5 5 5 5 5 5 5 5 5 5 5 5 5 5 5 5 5 5 5 5 5 5 5 5 5 5 5 5 5 5 5 5 5 5 5 5 5 5 5 5 5 5 5 5 5 5 5 5 5 5 5 5 5 5 5 5 5 5 5 5 5 5 5 5 5 5 5 5 5 5 5 5 5 5 5 5 5 5 5 5 5 5 5 5 5 5 5 5 5 5 5 5 5 5 5 5 5 5 5 5 5 5 5 5 5 5 5 5 5 5 5 5 5 5 5 5 5 5 5 5 5 5 5 5 5 5 5 5 5 5 5 5 5 5 5 5 5 5 5 5 5 5 5 5 5 5 5 5 5 5 5 5 5 5 5 5 5 5 5 5 5 5 5 5 5 5 5 5 5 5 5 5 5 5 5 5 5 5 5 5 5 5 5 5 5 5 5 5 5 5 5 5 5 5 5 5 5 5 5 5 5 5 5 5 5 5 5 5 </DataArray>
</Cells>
<PointData  Scalars="f_27"> 
<DataArray  type="Float64"  Name="f_27"  format="ascii">3.9269908169872414e+00  4.0363359203461009e+00  4.1708722287578857e+00  4.3310417786033506e+00  4.5144422918064402e+00  4.7121456548210459e+00  4.9098440110065740e+00  5.0932329458461263e+00  5.2533911034758747e+00  5.3879222932198134e+00  5.4975250061000791e+00  3.8176457136283819e+00  3.9269908169872414e+00  4.0688850022009957e+00  4.2487451271826897e+00  4.4674386861771245e+00  4.7124408515196370e+00  4.9574210338967326e+00  5.1760683694102436e+00  5.3559090816788926e+00  5.4977889019680504e+00  5.6071230586512009e+00  3.6831094052165962e+00  3.7850966317734875e+00  3.9269908169872414e+00  4.1244024462266102e+00  4.3906822665225702e+00  4.7124843857472412e+00  5.0342673818737564e+00  5.3004859174447567e+00  5.4978145952909703e+00  5.6396905369143600e+00  5.7416595279516240e+00  3.5229398553711322e+00  3.6052365067917935e+00  3.7295791877478717e+00  3.9269908169872414e+00  4.2488160723746029e+00  4.7124299932433420e+00  5.1760963904582615e+00  5.4979226789077860e+00  5.6952594310362041e+00  5.8195479984626468e+00  5.9018262710983844e+00  3.3395393421680426e+00  3.3865429477973579e+00  3.4632993674519121e+00  3.6051655615998794e+00  3.9269908169882757e+00  4.7124068223525306e+00  5.4978323582040778e+00  5.8197068731525041e+00  5.9615252111335870e+00  6.0382381086728802e+00  6.0852218084007133e+00  3.1418359791534369e+00  3.1415407824548449e+00  3.1414972482272412e+00  3.1415516407311403e+00  3.1415748283029754e+00  3.1418141526718779e+00  6.2832031479062165e+00  6.2832732834332861e+00  6.2832628540366890e+00  6.2832266909896335e+00  6.2829207205005746e+00  2.9441376229679079e+00  2.8965606000777502e+00  2.8197142521007259e+00  2.6778852435162213e+00  2.3561492749541166e+00  1.5707784695070923e+00  7.8539816339848689e-01  4.6363654742046367e-01  3.2180324207957151e-01  2.4501340878688968e-01  1.9743282058279493e-01  2.7607486881283561e+00  2.6779132645642387e+00  2.5534957165297261e+00  2.3560589550666968e+00  2.0342747608219791e+00  1.5707083505411970e+00  1.1071597793744328e+00  7.8539816339744828e-01  5.8803090732933805e-01  4.6365615571482693e-01  3.8082454725383502e-01  2.6005905304986081e+00  2.4980725522955902e+00  2.3561670386835125e+00  2.1587222029382787e+00  1.8924564228408953e+00  1.5707187799377931e+00  1.2489930847153250e+00  9.8276541946555851e-01  7.8539816339744828e-01  6.4350641327147040e-01  5.4098798094210221e-01  2.4660593407546685e+00  2.3561927320064320e+00  2.2142910970601233e+00  2.0344336355118364e+00  1.8157435253016032e+00  1.5707549429848493e+00  1.3257829180080065e+00  1.1071401710800690e+00  9.2728991352342571e-01  7.8539816339744828e-01  6.7552619280279369e-01  2.3564566278744032e+00  2.2468585753232810e+00  2.1123221060228587e+00  1.9521553628760977e+00  1.7687598255737704e+00  1.5710609134739084e+00  1.3733635062121012e+00  1.1899717795410609e+00  1.0298083458527940e+00  8.9527013399210242e-01  7.8539816339744828e-01  4.3906241128174290e+00  5.0341937950611868e+00  3.4633575211570538e+00  4.2487357909808461e+00  3.6052458429952785e+00  3.9269903945168898e+00  5.1760556111169391e+00  4.7122826688109907e+00  5.4978010284711596e+00  5.8195383591899645e+00  5.9614339797806970e+00  2.8197878389132951e+00  3.1415889307542613e+00  2.6779260304515966e+00  2.3561814258183946e+00  6.2831890406527284e+00  1.5709027649819847e+00  7.8539776613618228e-01  4.6366020981345041e-01  3.2179126476153225e-01  2.0344432657319453e+00  1.8925476541937856e+00  1.1071361169830931e+00  1.2490050620333641e+00  </DataArray> 
</PointData> 
</Piece>
</UnstructuredGrid>
</VTKFile>