<?xml version="1.0"?>
<VTKFile type="UnstructuredGrid"  version="0.1"  >
<UnstructuredGrid>
<Piece  NumberOfPoints="497" NumberOfCells="912">
<Points>
<DataArray  type="Float64"  NumberOfComponents="3"  format="ascii">0 0 0  0.05 0 0  0.1 0 0  0.15 0 0  0.2 0 0  0.25 0 0  0.3 0 0  0.35 0 0  0.4 0 0  0.45 0 0  0.5 0 0  0.55 0 0  0.6 0 0  0.65 0 0  0.7 0 0  0.75 0 0  0.8 0 0  0.85 0 0  0.9 0 0  0.95 0 0  1 0 0  0 0.05 0  0.05 0.05 0  0.1 0.05 0  0.15 0.05 0  0.2 0.05 0  0.25 0.05 0  0.3 0.05 0  0.35 0.05 0  0.4 0.05 0  0.45 0.05 0  0.5 0.05 0  0.55 0.05 0  0.6 0.05 0  0.65 0.05 0  0.7 0.05 0  0.75 0.05 0  0.8 0.05 0  0.85 0.05 0  0.9 0.05 0  0.95 0.05 0  1 0.05 0  0 0.1 0  0.05 0.1 0  0.1 0.1 0  0.15 0.1 0  0.2 0.1 0  0.25 0.1 0  0.3 0.1 0  0.35 0.1 0  0.4 0.1 0  0.45 0.1 0  0.5 0.1 0  0.55 0.1 0  0.6 0.1 0  0.65 0.1 0  0.7 0.1 0  0.75 0.1 0  0.8 0.1 0  0.85 0.1 0  0.9 0.1 0  0.95 0.1 0  1 0.1 0  0 0.15 0  0.05 0.15 0  0.1 0.15 0  0.15 0.15 0  0.2 0.15 0  0.25 0.15 0  0.3 0.15 0  0.35 0.15 0  0.4 0.15 0  0.45 0.15 0  0.5 0.15 0  0.55 0.15 0  0.6 0.15 0  0.65 0.15 0  0.7 0.15 0  0.75 0.15 0  0.8 0.15 0  0.85 0.15 0  0.9 0.15 0  0.95 0.15 0  1 0.15 0  0 0.2 0  0.05 0.2 0  0.1 0.2 0  0.15 0.2 0  0.2 0.2 0  0.25 0.2 0  0.3 0.2 0  0.35 0.2 0  0.4 0.2 0  0.45 0.2 0  0.5 0.2 0  0.55 0.2 0  0.6 0.2 0  0.65 0.2 0  0.7 0.2 0  0.75 0.2 0  0.8 0.2 0  0.85 0.2 0  0.9 0.2 0  0.95 0.2 0  1 0.2 0  0 0.25 0  0.05 0.25 0  0.1 0.25 0  0.15 0.25 0  0.2 0.25 0  0.25 0.25 0  0.3 0.25 0  0.35 0.25 0  0.4 0.25 0  0.45 0.25 0  0.5 0.25 0  0.55 0.25 0  0.6 0.25 0  0.65 0.25 0  0.7 0.25 0  0.75 0.25 0  0.8 0.25 0  0.85 0.25 0  0.9 0.25 0  0.95 0.25 0  1 0.25 0  0 0.3 0  0.05 0.3 0  0.1 0.3 0  0.15 0.3 0  0.2 0.3 0  0.25 0.3 0  0.3 0.3 0  0.35 0.3 0  0.4 0.3 0  0.45 0.3 0  0.5 0.3 0  0.55 0.3 0  0.6 0.3 0  0.65 0.3 0  0.7 0.3 0  0.75 0.3 0  0.8 0.3 0  0.85 0.3 0  0.9 0.3 0  0.95 0.3 0  1 0.3 0  0 0.35 0  0.05 0.35 0  0.1 0.35 0  0.15 0.35 0  0.2 0.35 0  0.25 0.35 0  0.3 0.35 0  0.35 0.35 0  0.4 0.35 0  0.45 0.35 0  0.5 0.35 0  0.55 0.35 0  0.6 0.35 0  0.65 0.35 0  0.7 0.35 0  0.75 0.35 0  0.8 0.35 0  0.85 0.35 0  0.9 0.35 0  0.95 0.35 0  1 0.35 0  0 0.4 0  0.05 0.4 0  0.1 0.4 0  0.15 0.4 0  0.2 0.4 0  0.25 0.4 0  0.3 0.4 0  0.35 0.4 0  0.4 0.4 0  0.45 0.4 0  0.5 0.4 0  0.55 0.4 0  0.6 0.4 0  0.65 0.4 0  0.7 0.4 0  0.75 0.4 0  0.8 0.4 0  0.85 0.4 0  0.9 0.4 0  0.95 0.4 0  1 0.4 0  0 0.45 0  0.05 0.45 0  0.1 0.45 0  0.15 0.45 0  0.2 0.45 0  0.25 0.45 0  0.3 0.45 0  0.35 0.45 0  0.4 0.45 0  0.45 0.45 0  0.5 0.45 0  0.55 0.45 0  0.6 0.45 0  0.65 0.45 0  0.7 0.45 0  0.75 0.45 0  0.8 0.45 0  0.85 0.45 0  0.9 0.45 0  0.95 0.45 0  1 0.45 0  0 0.5 0  0.05 0.5 0  0.1 0.5 0  0.15 0.5 0  0.2 0.5 0  0.25 0.5 0  0.3 0.5 0  0.35 0.5 0  0.4 0.5 0  0.45 0.5 0  0.5 0.5 0  0.55 0.5 0  0.6 0.5 0  0.65 0.5 0  0.7 0.5 0  0.75 0.5 0  0.8 0.5 0  0.85 0.5 0  0.9 0.5 0  0.95 0.5 0  1 0.5 0  0 0.55 0  0.05 0.55 0  0.1 0.55 0  0.15 0.55 0  0.2 0.55 0  0.25 0.55 0  0.3 0.55 0  0.35 0.55 0  0.4 0.55 0  0.45 0.55 0  0.5 0.55 0  0.55 0.55 0  0.6 0.55 0  0.65 0.55 0  0.7 0.55 0  0.75 0.55 0  0.8 0.55 0  0.85 0.55 0  0.9 0.55 0  0.95 0.55 0  1 0.55 0  0 0.6 0  0.05 0.6 0  0.1 0.6 0  0.15 0.6 0  0.2 0.6 0  0.25 0.6 0  0.3 0.6 0  0.35 0.6 0  0.4 0.6 0  0.45 0.6 0  0.5 0.6 0  0.55 0.6 0  0.6 0.6 0  0.65 0.6 0  0.7 0.6 0  0.75 0.6 0  0.8 0.6 0  0.85 0.6 0  0.9 0.6 0  0.95 0.6 0  1 0.6 0  0 0.65 0  0.05 0.65 0  0.1 0.65 0  0.15 0.65 0  0.2 0.65 0  0.25 0.65 0  0.3 0.65 0  0.35 0.65 0  0.4 0.65 0  0.45 0.65 0  0.5 0.65 0  0.55 0.65 0  0.6 0.65 0  0.65 0.65 0  0.7 0.65 0  0.75 0.65 0  0.8 0.65 0  0.85 0.65 0  0.9 0.65 0  0.95 0.65 0  1 0.65 0  0 0.7 0  0.05 0.7 0  0.1 0.7 0  0.15 0.7 0  0.2 0.7 0  0.25 0.7 0  0.3 0.7 0  0.35 0.7 0  0.4 0.7 0  0.45 0.7 0  0.5 0.7 0  0.55 0.7 0  0.6 0.7 0  0.65 0.7 0  0.7 0.7 0  0.75 0.7 0  0.8 0.7 0  0.85 0.7 0  0.9 0.7 0  0.95 0.7 0  1 0.7 0  0 0.75 0  0.05 0.75 0  0.1 0.75 0  0.15 0.75 0  0.2 0.75 0  0.25 0.75 0  0.3 0.75 0  0.35 0.75 0  0.4 0.75 0  0.45 0.75 0  0.5 0.75 0  0.55 0.75 0  0.6 0.75 0  0.65 0.75 0  0.7 0.75 0  0.75 0.75 0  0.8 0.75 0  0.85 0.75 0  0.9 0.75 0  0.95 0.75 0  1 0.75 0  0 0.8 0  0.05 0.8 0  0.1 0.8 0  0.15 0.8 0  0.2 0.8 0  0.25 0.8 0  0.3 0.8 0  0.35 0.8 0  0.4 0.8 0  0.45 0.8 0  0.5 0.8 0  0.55 0.8 0  0.6 0.8 0  0.65 0.8 0  0.7 0.8 0  0.75 0.8 0  0.8 0.8 0  0.85 0.8 0  0.9 0.8 0  0.95 0.8 0  1 0.8 0  0 0.85 0  0.05 0.85 0  0.1 0.85 0  0.15 0.85 0  0.2 0.85 0  0.25 0.85 0  0.3 0.85 0  0.35 0.85 0  0.4 0.85 0  0.45 0.85 0  0.5 0.85 0  0.55 0.85 0  0.6 0.85 0  0.65 0.85 0  0.7 0.85 0  0.75 0.85 0  0.8 0.85 0  0.85 0.85 0  0.9 0.85 0  0.95 0.85 0  1 0.85 0  0 0.9 0  0.05 0.9 0  0.1 0.9 0  0.15 0.9 0  0.2 0.9 0  0.25 0.9 0  0.3 0.9 0  0.35 0.9 0  0.4 0.9 0  0.45 0.9 0  0.5 0.9 0  0.55 0.9 0  0.6 0.9 0  0.65 0.9 0  0.7 0.9 0  0.75 0.9 0  0.8 0.9 0  0.85 0.9 0  0.9 0.9 0  0.95 0.9 0  1 0.9 0  0 0.95 0  0.05 0.95 0  0.1 0.95 0  0.15 0.95 0  0.2 0.95 0  0.25 0.95 0  0.3 0.95 0  0.35 0.95 0  0.4 0.95 0  0.45 0.95 0  0.5 0.95 0  0.55 0.95 0  0.6 0.95 0  0.65 0.95 0  0.7 0.95 0  0.75 0.95 0  0.8 0.95 0  0.85 0.95 0  0.9 0.95 0  0.95 0.95 0  1 0.95 0  0 1 0  0.05 1 0  0.1 1 0  0.15 1 0  0.2 1 0  0.25 1 0  0.3 1 0  0.35 1 0  0.4 1 0  0.45 1 0  0.5 1 0  0.55 1 0  0.6 1 0  0.65 1 0  0.7 1 0  0.75 1 0  0.8 1 0  0.85 1 0  0.9 1 0  0.95 1 0  1 1 0  0.475 0.375 0  0.525 0.375 0  0.425 0.425 0  0.475 0.4 0  0.45 0.425 0  0.475 0.425 0  0.525 0.4 0  0.5 0.425 0  0.525 0.425 0  0.55 0.425 0  0.575 0.425 0  0.375 0.475 0  0.425 0.45 0  0.4 0.475 0  0.425 0.475 0  0.475 0.45 0  0.45 0.475 0  0.475 0.475 0  0.525 0.45 0  0.5 0.475 0  0.525 0.475 0  0.575 0.45 0  0.55 0.475 0  0.575 0.475 0  0.6 0.475 0  0.625 0.475 0  0.375 0.525 0  0.425 0.5 0  0.4 0.525 0  0.425 0.525 0  0.475 0.5 0  0.45 0.525 0  0.475 0.525 0  0.525 0.5 0  0.5 0.525 0  0.525 0.525 0  0.575 0.5 0  0.55 0.525 0  0.575 0.525 0  0.6 0.525 0  0.625 0.525 0  0.425 0.55 0  0.425 0.575 0  0.475 0.55 0  0.45 0.575 0  0.475 0.575 0  0.525 0.55 0  0.5 0.575 0  0.525 0.575 0  0.575 0.55 0  0.55 0.575 0  0.575 0.575 0  0.475 0.6 0  0.475 0.625 0  0.525 0.6 0  0.525 0.625 0  </DataArray>
</Points>
<Cells>
[...]
<PointData  Scalars="f_21"> 
<DataArray  type="Float64"  Name="f_21"  format="ascii">4.0511798380704518e-03  1.9932325067880875e-02  4.1918950076140833e-02  6.7519880043385827e-02  9.6479023216489615e-02  1.2851972882601592e-01  1.6305836642747623e-01  1.9914290898291551e-01  2.3546585246752297e-01  2.7045541253526684e-01  3.0247076438051401e-01  3.3004867486911044e-01  3.5211812257898789e-01  3.6813529409663415e-01  3.7810643511440295e-01  3.8247567687246925e-01  3.8197830904851660e-01  3.7748141980964145e-01  3.6985425925704368e-01  3.5991818574282791e-01  3.4930909483365286e-01  9.4373181231862460e-03  2.3559335563467485e-02  4.7598174298804863e-02  7.6556408650963220e-02  1.0981554511973650e-01  1.4707279733730799e-01  1.8765152431578921e-01  2.3035794164197451e-01  2.7341857571550193e-01  3.1476073301360563e-01  3.5197972865771127e-01  3.8318470143200417e-01  4.0699639373949226e-01  4.2289309902515049e-01  4.3113811769469040e-01  4.3257463372672639e-01  4.2836505564528221e-01  4.1977466620953691e-01  4.0801289919047573e-01  3.9433470643842450e-01  3.8099005721925377e-01  1.1599878607597728e-02  2.6620076267351737e-02  5.3214521111866010e-02  8.6114485121064968e-02  1.2460549900934761e-01  1.6827387844587263e-01  2.1669910535833140e-01  2.6852008833077129e-01  3.2118775712088049e-01  3.7124243473680862e-01  4.1609628399472709e-01  4.5173670154411227e-01  4.7691396633312233e-01  4.9110946629733082e-01  4.9579952323654453e-01  4.9223420611275404e-01  4.8225571299539294e-01  4.6771550673366835e-01  4.5023459241838809e-01  4.3135404115240039e-01  4.1368486861769022e-01  1.3544807333764371e-02  2.9637829319124932e-02  5.9297224805901660e-02  9.6799492761951031e-02  1.4126243114643922e-01  1.9333979161428197e-01  2.5083928251480897e-01  3.1416414451886021e-01  3.8034876895305914e-01  4.4347410953262073e-01  4.9695984929570836e-01  5.4092688874810158e-01  5.6830594438577353e-01  5.7891802977683460e-01  5.7387212359191431e-01  5.6205113454392708e-01  5.4362322972681898e-01  5.2087091100736849e-01  4.9590017641926881e-01  4.7050797787917409e-01  4.4765808978344490e-01  1.5474165158851800e-02  3.2784133044978257e-02  6.5867281519681964e-02  1.0830814486898610e-01  1.6022462128755266e-01  2.1843747324464885e-01  2.8654294436277633e-01  3.4624120051493235e-01  3.9825382381891034e-01  4.4899944286375498e-01  4.9973682164321154e-01  5.4987575845356296e-01  5.9967682882976603e-01  6.4429549133360231e-01  6.6569626137887761e-01  6.4216149056435612e-01  6.1227446319114021e-01  5.7869500677167274e-01  5.4422932102364030e-01  5.1096530557011588e-01  4.8220477489869057e-01  1.7272133679152243e-02  3.5965187160889658e-02  7.2553722142700186e-02  1.2040315258742938e-01  1.7598171393177897e-01  2.4325076839556392e-01  2.9631262167955441e-01  3.4876826870871386e-01  3.9976217383787666e-01  4.4977535713031996e-01  4.9981746817578432e-01  5.4989492353666169e-01  5.9982178804450870e-01  6.4930350806183013e-01  6.9650729223559382e-01  7.2596876037312785e-01  6.8551439559334748e-01  6.3955096288783952e-01  5.9382046504845942e-01  5.5145624626457568e-01  5.1624071851197462e-01  1.8759365220192517e-02  3.8956974493951406e-02  7.8871154531631640e-02  1.2959588336019029e-01  1.9045043246004123e-01  2.4507754745437973e-01  2.9902611691010045e-01  3.4953726401460039e-01  3.9978020553013455e-01  4.4991669222948494e-01  4.9996644688493486e-01  5.5000926254079785e-01  6.0002596907659267e-01  6.4985376284368324e-01  6.9846435576283961e-01  7.4140495683314167e-01  7.5301939878149537e-01  6.9893399177948146e-01  6.4216726691075243e-01  5.9013988996993394e-01  5.4831329690832686e-01  1.9725919479560265e-02  4.1458185951209307e-02  8.4240472828497504e-02  1.3612718710384450e-01  1.9504902281699826e-01  2.4783985128709435e-01  2.9938760299156064e-01  3.4980217741144753e-01  3.9988406912194430e-01  4.4994821481927821e-01  4.9998609127699856e-01  5.5002284842213767e-01  6.0006343421029551e-01  6.5005718699092063e-01  6.9967281955815808e-01  7.4659144370873953e-01  7.7909329372636449e-01  7.4896486377256843e-01  6.8516789076674944e-01  6.2455833718362286e-01  5.7664547884935180e-01  1.9986747059949246e-02  4.3168404204781900e-02  8.8328003309121911e-02  1.4190565103384467e-01  1.9559300709146163e-01  2.4904861948265378e-01  2.9967359665679733e-01  3.4983882697738922e-01  3.9991617225066889e-01  4.4995897213023822e-01  4.9999886941204119e-01  5.5002543628743550e-01  6.0006761181208446e-01  6.5008952824806032e-01  6.9991509571955413e-01  7.4815962672452185e-01  7.8773411157107809e-01  7.8465695153640103e-01  7.2014100324733910e-01  6.5221103558978377e-01  5.9933359512730644e-01  1.9410381596328408e-02  4.3892397469542356e-02  9.0416813379361569e-02  1.4683403040735063e-01  1.9727800332265957e-01  2.4935345150773180e-01  2.9978215794574603e-01  3.4987757903763833e-01  3.9993507887139568e-01  4.4998590291881435e-01  4.9999951745563936e-01  5.5001265311151415e-01  6.0004271204628923e-01  6.5009242336695872e-01  7.0002960470174147e-01  7.4919919834937820e-01  7.9306977803224965e-01  8.0765021806595971e-01  7.4349927181117259e-01  6.7050959001286969e-01  6.1454288353492126e-01  1.8012319829566293e-02  4.3501602618826740e-02  9.1024016502167127e-02  1.4824643194924517e-01  1.9901794161281200e-01  2.4961769409452578e-01  2.9980455043733928e-01  3.4988559170718864e-01  3.9995787179718212e-01  4.4998660789197098e-01  4.9999820250538707e-01  5.5001145566912824e-01  6.0003516100684784e-01  6.5008185777154548e-01  7.0002739314790829e-01  7.4916693969580339e-01  7.9341320566574014e-01  8.1072348659306537e-01  7.5148101036396231e-01  6.7733394626775478e-01  6.2091170161203790e-01  1.5909898856897788e-02  4.2032598639052322e-02  8.9199344486295851e-02  1.4987373963768169e-01  2.0028982239620824e-01  2.4983391622447332e-01  2.9982050047988568e-01  3.4986951643881620e-01  3.9994851394728914e-01  4.4998593770977019e-01  4.9999973037946477e-01  5.5001233525878568e-01  6.0004931596214584e-01  6.5006706526268032e-01  6.9998518242569474e-01  7.4857833205314928e-01  7.8937488224995300e-01  8.0563948466662860e-01  7.4473905920819128e-01  6.7233400765379769e-01  6.1788377060365585e-01  1.3342045402846425e-02  3.9708555639169217e-02  8.5418773013224494e-02  1.4728316352097978e-01  2.0198976753744438e-01  2.5008155684991529e-01  2.9985338508112447e-01  3.4986522540025289e-01  3.9991260248156041e-01  4.4996907603000036e-01  4.9999812035424940e-01  5.5002868892150103e-01  6.0005661744245886e-01  6.5002457286674287e-01  6.9961019900297650e-01  7.4715984775052602e-01  7.8018599720698012e-01  7.8061035555469382e-01  7.2345793029506178e-01  6.5554031465099716e-01  6.0567828582027672e-01  1.0582260903716497e-02  3.6859145135161045e-02  8.0000278652383391e-02  1.4049748223859043e-01  2.0477047281754512e-01  2.5098689433081689e-01  3.0001026053507290e-01  3.4988662365681295e-01  3.9990871894028129e-01  4.4995260463565184e-01  4.9999258899581683e-01  5.5000651405760148e-01  6.0000499453908263e-01  6.4989164262951526e-01  6.9858052683462135e-01  7.4272470772355637e-01  7.7059655632704438e-01  7.4490271520873108e-01  6.8965791703680468e-01  6.2905458267418402e-01  5.8544343887031502e-01  7.8668365090712837e-03  3.3724312791420991e-02  7.3616589508663316e-02  1.2731564072488416e-01  2.0220957611279083e-01  2.5430019816843963e-01  3.0084656316690561e-01  3.5009039551346555e-01  3.9997374930381902e-01  4.4994411794864209e-01  4.9994590005886913e-01  5.4992295220439813e-01  5.9964569586641070e-01  6.4877303761697502e-01  6.9669816704728471e-01  7.3024774137864401e-01  7.4541545055417291e-01  7.0055813474849193e-01  6.4711379016161108e-01  5.9519990704713299e-01  5.5886039180590463e-01  5.3746185313253043e-03  3.0589086523009609e-02  6.7002335579047570e-02  1.1413211226971860e-01  1.7555533676178450e-01  2.5863924246261738e-01  3.0574227326084830e-01  3.5170583366348052e-01  4.0056245671168128e-01  4.5004875361635582e-01  4.9960866877397331e-01  5.4915055329609297e-01  5.9877337615522797e-01  6.4525288024735417e-01  6.8542617819284635e-01  7.1809774703239326e-01  6.8309786155980445e-01  6.4568833816315330e-01  5.9897007553707005e-01  5.5667639461013474e-01  5.2784274225183825e-01  3.2022023131968902e-03  2.7614562708963113e-02  6.0710575454339312e-02  1.0215982170910851e-01  1.5337573746405744e-01  2.1744641144233884e-01  2.9879598188134704e-01  3.5703569423967585e-01  4.0486466645147451e-01  4.5144006470729742e-01  4.9914625445844096e-01  5.4558068130755122e-01  5.9228264758707527e-01  6.3664313775699910e-01  6.5862330643164535e-01  6.3928840605775994e-01  6.1885800873517560e-01  5.8425815888566701e-01  5.4929344423201620e-01  5.1606095479655401e-01  4.9425667634784065e-01  1.3802418385581233e-03  2.4867465549671740e-02  5.4871663706602930e-02  9.1443070613604627e-02  1.3520618317944702e-01  1.8688898847428678e-01  2.4749808922541830e-01  3.1769392365692711e-01  3.8582470149969039e-01  4.4757068118021498e-01  4.9766822677097067e-01  5.3987862688336719e-01  5.6419334253865894e-01  5.7404497687377842e-01  5.7461148306159027e-01  5.6798251336227479e-01  5.4918415721460478e-01  5.2623612741326797e-01  5.0031472785322650e-01  4.7526047225182194e-01  4.5967360349375314e-01  -9.0805079816897716e-05  2.2375824509658682e-02  4.9533663282657736e-02  8.1851714102975953e-02  1.1966843734389448e-01  1.6304764090435750e-01  2.1163774711855277e-01  2.6422377190913826e-01  3.1817219804044850e-01  3.6992881394862132e-01  4.1640184157295373e-01  4.5286487367182127e-01  4.8012059265800888e-01  4.9549682633508857e-01  5.0056877149902623e-01  4.9728586024392851e-01  4.8726741803962204e-01  4.7201136919091974e-01  4.5394493833876665e-01  4.3559475356167437e-01  4.2529657649399599e-01  -1.1100451565654514e-03  2.0193931983298222e-02  4.4747588651457615e-02  7.3364037586872377e-02  1.0624484659645196e-01  1.4325186944383730e-01  1.8384356402048738e-01  2.2695339514239732e-01  2.7080025977773936e-01  3.1326196568345077e-01  3.5195987876038332e-01  3.8455319546084626e-01  4.0955814385997258e-01  4.2632533633014680e-01  4.3497353815210910e-01  4.3645330683336575e-01  4.3199094580816871e-01  4.2302293193946094e-01  4.1089206651245369e-01  3.9761414719464694e-01  3.9156483425261862e-01  -6.7629302776296750e-04  1.8750645238468512e-02  4.0803812342123873e-02  6.6242258046800465e-02  9.5045172058879066e-02  1.2697472144660210e-01  1.6148939984166372e-01  1.9768472266055254e-01  2.3427024489117482e-01  2.6968474044863416e-01  3.0225693067009107e-01  3.3040382553538294e-01  3.5301325830418329e-01  3.6942177165975304e-01  3.7962563690163548e-01  3.8406902518183861e-01  3.8351923904475155e-01  3.7889567290449572e-01  3.7113095085394482e-01  3.6140712889738680e-01  3.5435494242087101e-01  4.7498688283461760e-01  5.2500655698972976e-01  4.2497142935555909e-01  4.7499090380025805e-01  4.4998912486505399e-01  4.7499118957314318e-01  5.2500529877030100e-01  4.9999934717845707e-01  5.2500610135642234e-01  5.5000928018675432e-01  5.7502572996085277e-01  3.7495297899028468e-01  4.2498054595152696e-01  3.9997966741458713e-01  4.2497798881133098e-01  4.7499488642420207e-01  4.4999053587124999e-01  4.7499333930645243e-01  5.2500439023380852e-01  4.9999861166203052e-01  5.2500390641832573e-01  5.7501522166445507e-01  5.5000792145831146e-01  5.7501845881928670e-01  6.0001725364086300e-01  6.2503975776385545e-01  3.7495086668871308e-01  4.2498418181499531e-01  3.9997948317797755e-01  4.2497883442000878e-01  4.7499541596076439e-01  4.4999061820002134e-01  4.7499346225664130e-01  5.2500282759294070e-01  4.9999893064509715e-01  5.2500488722157879e-01  5.7501364752584616e-01  5.5000810533441657e-01  5.7501879090283892e-01  6.0001707827889605e-01  6.2503688949589853e-01  4.2498250511056662e-01  4.2497036272132177e-01  4.7499488699357778e-01  4.4998906840617275e-01  4.7499222238320349e-01  5.2500429504904489e-01  4.9999952357966776e-01  5.2500674123502999e-01  5.7501651555246547e-01  5.5000918063476445e-01  5.7502370941291425e-01  4.7499228965431173e-01  4.7498651097802902e-01  5.2500606037509212e-01  5.2500463913948237e-01  </DataArray> 
</PointData> 
</Piece>
</UnstructuredGrid>
</VTKFile>