<?xml version="1.0"?>
<VTKFile type="UnstructuredGrid"  version="0.1"  >
<UnstructuredGrid>
<Piece  NumberOfPoints="497" NumberOfCells="912">
<Points>
<DataArray  type="Float64"  NumberOfComponents="3"  format="ascii">0 0 0  0.05 0 0  0.1 0 0  0.15 0 0  0.2 0 0  0.25 0 0  0.3 0 0  0.35 0 0  0.4 0 0  0.45 0 0  0.5 0 0  0.55 0 0  0.6 0 0  0.65 0 0  0.7 0 0  0.75 0 0  0.8 0 0  0.85 0 0  0.9 0 0  0.95 0 0  1 0 0  0 0.05 0  0.05 0.05 0  0.1 0.05 0  0.15 0.05 0  0.2 0.05 0  0.25 0.05 0  0.3 0.05 0  0.35 0.05 0  0.4 0.05 0  0.45 0.05 0  0.5 0.05 0  0.55 0.05 0  0.6 0.05 0  0.65 0.05 0  0.7 0.05 0  0.75 0.05 0  0.8 0.05 0  0.85 0.05 0  0.9 0.05 0  0.95 0.05 0  1 0.05 0  0 0.1 0  0.05 0.1 0  0.1 0.1 0  0.15 0.1 0  0.2 0.1 0  0.25 0.1 0  0.3 0.1 0  0.35 0.1 0  0.4 0.1 0  0.45 0.1 0  0.5 0.1 0  0.55 0.1 0  0.6 0.1 0  0.65 0.1 0  0.7 0.1 0  0.75 0.1 0  0.8 0.1 0  0.85 0.1 0  0.9 0.1 0  0.95 0.1 0  1 0.1 0  0 0.15 0  0.05 0.15 0  0.1 0.15 0  0.15 0.15 0  0.2 0.15 0  0.25 0.15 0  0.3 0.15 0  0.35 0.15 0  0.4 0.15 0  0.45 0.15 0  0.5 0.15 0  0.55 0.15 0  0.6 0.15 0  0.65 0.15 0  0.7 0.15 0  0.75 0.15 0  0.8 0.15 0  0.85 0.15 0  0.9 0.15 0  0.95 0.15 0  1 0.15 0  0 0.2 0  0.05 0.2 0  0.1 0.2 0  0.15 0.2 0  0.2 0.2 0  0.25 0.2 0  0.3 0.2 0  0.35 0.2 0  0.4 0.2 0  0.45 0.2 0  0.5 0.2 0  0.55 0.2 0  0.6 0.2 0  0.65 0.2 0  0.7 0.2 0  0.75 0.2 0  0.8 0.2 0  0.85 0.2 0  0.9 0.2 0  0.95 0.2 0  1 0.2 0  0 0.25 0  0.05 0.25 0  0.1 0.25 0  0.15 0.25 0  0.2 0.25 0  0.25 0.25 0  0.3 0.25 0  0.35 0.25 0  0.4 0.25 0  0.45 0.25 0  0.5 0.25 0  0.55 0.25 0  0.6 0.25 0  0.65 0.25 0  0.7 0.25 0  0.75 0.25 0  0.8 0.25 0  0.85 0.25 0  0.9 0.25 0  0.95 0.25 0  1 0.25 0  0 0.3 0  0.05 0.3 0  0.1 0.3 0  0.15 0.3 0  0.2 0.3 0  0.25 0.3 0  0.3 0.3 0  0.35 0.3 0  0.4 0.3 0  0.45 0.3 0  0.5 0.3 0  0.55 0.3 0  0.6 0.3 0  0.65 0.3 0  0.7 0.3 0  0.75 0.3 0  0.8 0.3 0  0.85 0.3 0  0.9 0.3 0  0.95 0.3 0  1 0.3 0  0 0.35 0  0.05 0.35 0  0.1 0.35 0  0.15 0.35 0  0.2 0.35 0  0.25 0.35 0  0.3 0.35 0  0.35 0.35 0  0.4 0.35 0  0.45 0.35 0  0.5 0.35 0  0.55 0.35 0  0.6 0.35 0  0.65 0.35 0  0.7 0.35 0  0.75 0.35 0  0.8 0.35 0  0.85 0.35 0  0.9 0.35 0  0.95 0.35 0  1 0.35 0  0 0.4 0  0.05 0.4 0  0.1 0.4 0  0.15 0.4 0  0.2 0.4 0  0.25 0.4 0  0.3 0.4 0  0.35 0.4 0  0.4 0.4 0  0.45 0.4 0  0.5 0.4 0  0.55 0.4 0  0.6 0.4 0  0.65 0.4 0  0.7 0.4 0  0.75 0.4 0  0.8 0.4 0  0.85 0.4 0  0.9 0.4 0  0.95 0.4 0  1 0.4 0  0 0.45 0  0.05 0.45 0  0.1 0.45 0  0.15 0.45 0  0.2 0.45 0  0.25 0.45 0  0.3 0.45 0  0.35 0.45 0  0.4 0.45 0  0.45 0.45 0  0.5 0.45 0  0.55 0.45 0  0.6 0.45 0  0.65 0.45 0  0.7 0.45 0  0.75 0.45 0  0.8 0.45 0  0.85 0.45 0  0.9 0.45 0  0.95 0.45 0  1 0.45 0  0 0.5 0  0.05 0.5 0  0.1 0.5 0  0.15 0.5 0  0.2 0.5 0  0.25 0.5 0  0.3 0.5 0  0.35 0.5 0  0.4 0.5 0  0.45 0.5 0  0.5 0.5 0  0.55 0.5 0  0.6 0.5 0  0.65 0.5 0  0.7 0.5 0  0.75 0.5 0  0.8 0.5 0  0.85 0.5 0  0.9 0.5 0  0.95 0.5 0  1 0.5 0  0 0.55 0  0.05 0.55 0  0.1 0.55 0  0.15 0.55 0  0.2 0.55 0  0.25 0.55 0  0.3 0.55 0  0.35 0.55 0  0.4 0.55 0  0.45 0.55 0  0.5 0.55 0  0.55 0.55 0  0.6 0.55 0  0.65 0.55 0  0.7 0.55 0  0.75 0.55 0  0.8 0.55 0  0.85 0.55 0  0.9 0.55 0  0.95 0.55 0  1 0.55 0  0 0.6 0  0.05 0.6 0  0.1 0.6 0  0.15 0.6 0  0.2 0.6 0  0.25 0.6 0  0.3 0.6 0  0.35 0.6 0  0.4 0.6 0  0.45 0.6 0  0.5 0.6 0  0.55 0.6 0  0.6 0.6 0  0.65 0.6 0  0.7 0.6 0  0.75 0.6 0  0.8 0.6 0  0.85 0.6 0  0.9 0.6 0  0.95 0.6 0  1 0.6 0  0 0.65 0  0.05 0.65 0  0.1 0.65 0  0.15 0.65 0  0.2 0.65 0  0.25 0.65 0  0.3 0.65 0  0.35 0.65 0  0.4 0.65 0  0.45 0.65 0  0.5 0.65 0  0.55 0.65 0  0.6 0.65 0  0.65 0.65 0  0.7 0.65 0  0.75 0.65 0  0.8 0.65 0  0.85 0.65 0  0.9 0.65 0  0.95 0.65 0  1 0.65 0  0 0.7 0  0.05 0.7 0  0.1 0.7 0  0.15 0.7 0  0.2 0.7 0  0.25 0.7 0  0.3 0.7 0  0.35 0.7 0  0.4 0.7 0  0.45 0.7 0  0.5 0.7 0  0.55 0.7 0  0.6 0.7 0  0.65 0.7 0  0.7 0.7 0  0.75 0.7 0  0.8 0.7 0  0.85 0.7 0  0.9 0.7 0  0.95 0.7 0  1 0.7 0  0 0.75 0  0.05 0.75 0  0.1 0.75 0  0.15 0.75 0  0.2 0.75 0  0.25 0.75 0  0.3 0.75 0  0.35 0.75 0  0.4 0.75 0  0.45 0.75 0  0.5 0.75 0  0.55 0.75 0  0.6 0.75 0  0.65 0.75 0  0.7 0.75 0  0.75 0.75 0  0.8 0.75 0  0.85 0.75 0  0.9 0.75 0  0.95 0.75 0  1 0.75 0  0 0.8 0  0.05 0.8 0  0.1 0.8 0  0.15 0.8 0  0.2 0.8 0  0.25 0.8 0  0.3 0.8 0  0.35 0.8 0  0.4 0.8 0  0.45 0.8 0  0.5 0.8 0  0.55 0.8 0  0.6 0.8 0  0.65 0.8 0  0.7 0.8 0  0.75 0.8 0  0.8 0.8 0  0.85 0.8 0  0.9 0.8 0  0.95 0.8 0  1 0.8 0  0 0.85 0  0.05 0.85 0  0.1 0.85 0  0.15 0.85 0  0.2 0.85 0  0.25 0.85 0  0.3 0.85 0  0.35 0.85 0  0.4 0.85 0  0.45 0.85 0  0.5 0.85 0  0.55 0.85 0  0.6 0.85 0  0.65 0.85 0  0.7 0.85 0  0.75 0.85 0  0.8 0.85 0  0.85 0.85 0  0.9 0.85 0  0.95 0.85 0  1 0.85 0  0 0.9 0  0.05 0.9 0  0.1 0.9 0  0.15 0.9 0  0.2 0.9 0  0.25 0.9 0  0.3 0.9 0  0.35 0.9 0  0.4 0.9 0  0.45 0.9 0  0.5 0.9 0  0.55 0.9 0  0.6 0.9 0  0.65 0.9 0  0.7 0.9 0  0.75 0.9 0  0.8 0.9 0  0.85 0.9 0  0.9 0.9 0  0.95 0.9 0  1 0.9 0  0 0.95 0  0.05 0.95 0  0.1 0.95 0  0.15 0.95 0  0.2 0.95 0  0.25 0.95 0  0.3 0.95 0  0.35 0.95 0  0.4 0.95 0  0.45 0.95 0  0.5 0.95 0  0.55 0.95 0  0.6 0.95 0  0.65 0.95 0  0.7 0.95 0  0.75 0.95 0  0.8 0.95 0  0.85 0.95 0  0.9 0.95 0  0.95 0.95 0  1 0.95 0  0 1 0  0.05 1 0  0.1 1 0  0.15 1 0  0.2 1 0  0.25 1 0  0.3 1 0  0.35 1 0  0.4 1 0  0.45 1 0  0.5 1 0  0.55 1 0  0.6 1 0  0.65 1 0  0.7 1 0  0.75 1 0  0.8 1 0  0.85 1 0  0.9 1 0  0.95 1 0  1 1 0  0.475 0.375 0  0.525 0.375 0  0.425 0.425 0  0.475 0.4 0  0.45 0.425 0  0.475 0.425 0  0.525 0.4 0  0.5 0.425 0  0.525 0.425 0  0.55 0.425 0  0.575 0.425 0  0.375 0.475 0  0.425 0.45 0  0.4 0.475 0  0.425 0.475 0  0.475 0.45 0  0.45 0.475 0  0.475 0.475 0  0.525 0.45 0  0.5 0.475 0  0.525 0.475 0  0.575 0.45 0  0.55 0.475 0  0.575 0.475 0  0.6 0.475 0  0.625 0.475 0  0.375 0.525 0  0.425 0.5 0  0.4 0.525 0  0.425 0.525 0  0.475 0.5 0  0.45 0.525 0  0.475 0.525 0  0.525 0.5 0  0.5 0.525 0  0.525 0.525 0  0.575 0.5 0  0.55 0.525 0  0.575 0.525 0  0.6 0.525 0  0.625 0.525 0  0.425 0.55 0  0.425 0.575 0  0.475 0.55 0  0.45 0.575 0  0.475 0.575 0  0.525 0.55 0  0.5 0.575 0  0.525 0.575 0  0.575 0.55 0  0.55 0.575 0  0.575 0.575 0  0.475 0.6 0  0.475 0.625 0  0.525 0.6 0  0.525 0.625 0  </DataArray>
</Points>
<Cells>
[...]
<PointData  Scalars="f_30"> 
<DataArray  type="Float64"  Name="f_30"  format="ascii">3.9269908169872414e+00  3.9738016457775132e+00  4.0320820253573775e+00  4.0965275307823186e+00  4.1673120917164246e+00  4.2446041757319097e+00  4.3283037778276006e+00  4.4179443763514978e+00  4.5126220435622981e+00  4.6109820671655184e+00  4.7112907821785814e+00  4.8115964452109266e+00  4.9099479904995276e+00  5.0046135399686467e+00  5.0942409785092364e+00  5.1779292288480079e+00  5.2552144403704153e+00  5.3259988143573569e+00  5.3904525226191202e+00  5.4487698218947083e+00  5.4966206240486084e+00  3.8801799881969696e+00  3.9269908169872414e+00  3.9854711557064713e+00  4.0511007439246001e+00  4.1241804710489811e+00  4.2051226825821297e+00  4.2940336532087811e+00  4.3905429803021789e+00  4.4936588313358401e+00  4.6017033505214187e+00  4.7123906365861119e+00  4.8230751227564195e+00  4.9311108179910388e+00  5.0342133482057907e+00  5.1307058769529617e+00  5.2195980024237860e+00  5.3005205016303893e+00  5.3735807761742356e+00  5.4391919882210118e+00  5.4976587546323517e+00  5.5445582784112899e+00  3.8218996086171066e+00  3.8685104782680115e+00  3.9269908169872414e+00  3.9935533978946052e+00  4.0688863579848764e+00  4.1537937155056621e+00  4.2487539867297794e+00  4.3536421062663360e+00  4.4674466495494451e+00  4.5880838030281428e+00  4.7124517740399723e+00  4.8368117748162831e+00  4.9574368847012256e+00  5.0712250722177776e+00  5.1760956101203552e+00  5.2710375960089113e+00  5.3559280025938714e+00  5.4312448579874193e+00  5.4977931338444970e+00  5.5562604128202455e+00  5.6028678608903659e+00  3.7574541031921647e+00  3.8028808900498827e+00  3.8604282360798776e+00  3.9269908169872414e+00  4.0037655365640354e+00  4.0921489139381988e+00  4.1932652378691380e+00  4.3075563961442649e+00  4.4341953332875903e+00  4.5706375532560575e+00  4.7125649152552045e+00  4.8544731611184320e+00  4.9908575519498379e+00  5.1174065586689688e+00  5.2316159411681333e+00  5.3327039830978373e+00  5.4210657333388994e+00  5.4978221147010311e+00  5.5643687065854026e+00  5.6219015684747937e+00  5.6673162116265567e+00  3.6866695422580595e+00  3.7298011629255008e+00  3.7850952759896068e+00  3.8502160974104469e+00  3.9269908169872414e+00  4.0176596284448127e+00  4.1244286907200118e+00  4.2488209421988516e+00  4.3907724734300198e+00  4.5474339089344316e+00  4.7126338080319981e+00  4.8778230873751163e+00  5.0344430437927752e+00  5.1763183199223572e+00  5.3005850823872720e+00  5.4072161495153521e+00  5.4978526837201365e+00  5.5746063237942787e+00  5.6397092102608521e+00  5.6949875997548522e+00  5.7381022514475228e+00  3.6093774582425735e+00  3.6488589513923531e+00  3.7001879184688224e+00  3.7618327200362836e+00  3.8363220055296705e+00  3.9269908169872414e+00  4.0376765168470836e+00  4.1720444748053129e+00  4.3320009620351323e+00  4.5151595989802020e+00  4.7126068585483960e+00  4.9100504083171570e+00  5.0931994913721610e+00  5.2531410909287244e+00  5.3874636724946425e+00  5.4980089788383566e+00  5.5885319357686258e+00  5.6629942661003723e+00  5.7246212823689735e+00  5.7759335885099059e+00  5.8153944526704260e+00  3.5256778561468822e+00  3.5599479807657008e+00  3.6052276472447042e+00  3.6607163961053444e+00  3.7295529432544723e+00  3.8163051171273987e+00  3.9269908169872414e+00  4.0689254906456300e+00  4.2488196843391002e+00  4.4675340370389689e+00  4.7125711214284465e+00  4.9576076000090836e+00  5.1763127473902921e+00  5.3561918057864588e+00  5.4981137020502215e+00  5.6087710841876142e+00  5.6953697358803943e+00  5.7641096745735796e+00  5.8195814219038482e+00  5.8648455029733562e+00  5.8990927054887816e+00  3.4360372576229876e+00  3.4634386536723025e+00  3.5003395277081482e+00  3.5464252378302175e+00  3.6051606917756325e+00  3.6819371591691694e+00  3.7850561433288532e+00  3.9269908169872414e+00  4.1244246508900320e+00  4.3908697934001291e+00  4.7124560987907147e+00  5.0341341331284797e+00  5.3006328885663185e+00  5.4980456845809069e+00  5.6399692535236854e+00  5.7430789594924683e+00  5.8198021468154897e+00  5.8784031930274852e+00  5.9244639037155693e+00  5.9613527030974129e+00  5.9887305642917754e+00  3.3413595904121838e+00  3.3603228026386427e+00  3.3865349844250372e+00  3.4197863006868925e+00  3.4632091605444622e+00  3.5219806719393483e+00  3.6051619496353822e+00  3.7295569830844495e+00  3.9269908169873133e+00  4.2486213482042627e+00  4.7124276612949751e+00  5.1762344114657868e+00  5.4979695882720350e+00  5.6953844527344399e+00  5.8197758182288668e+00  5.9029542040033478e+00  5.9617140050699584e+00  6.0050299821507007e+00  6.0382596973716502e+00  6.0644641407106237e+00  6.0834028679171599e+00  3.2429995668089635e+00  3.2522782834530637e+00  3.2658978309463387e+00  3.2833440807184244e+00  3.3065477250400495e+00  3.3388220349942759e+00  3.3864475969355063e+00  3.4631118405741579e+00  3.6053602857947094e+00  3.9269908144746082e+00  4.7123964922688613e+00  5.4978194159749014e+00  5.8195021210587878e+00  5.9618114618489129e+00  6.0384293556050945e+00  6.0860571454013073e+00  6.1183336957564300e+00  6.1414875499485069e+00  6.1589193082004012e+00  6.1725294135809996e+00  6.1816624194941818e+00  3.1426908517959005e+00  9.4247763045679545e+00  9.4247151671140976e+00  9.4246020258988654e+00  9.4245331331220701e+00  9.4245600826056659e+00  9.4245958197236739e+00  9.4247108423629324e+00  9.4247392760542876e+00  9.4247623747391476e+00  3.1418303052316956e+00  6.2831850462390637e+00  6.2831875101014232e+00  6.2831943613878654e+00  6.2831950000321592e+00  6.2831972129999452e+00  6.2831994049543054e+00  6.2831953989697791e+00  6.2831887488685361e+00  6.2831693059772871e+00  6.2819246100037605e+00  9.3255704959431416e+00  9.3140918183976495e+00  9.3003551663377859e+00  9.2826937800356379e+00  9.2593438537789545e+00  9.2271165328371314e+00  9.1795593411833405e+00  9.1030328120969557e+00  8.9609325416444872e+00  8.6393487030286735e+00  7.8539861351344928e+00  7.0685828584499895e+00  6.7470202426464478e+00  6.6048807232116244e+00  6.5283256925630697e+00  6.4807792392329286e+00  6.4485648110929805e+00  6.4252649344309933e+00  6.4076214004969003e+00  6.3938799576044216e+00  6.3821910401325823e+00  9.2272189506545406e+00  9.2060561231630320e+00  9.1797300564528452e+00  9.1463093892042302e+00  9.1027238973612974e+00  9.0439674497827820e+00  8.9608541939137876e+00  8.8365340700531245e+00  8.6391986811031778e+00  8.3176817805207328e+00  7.8539427588445649e+00  7.3901495076553267e+00  7.0685828208394499e+00  6.8712394810587760e+00  6.7469272558147733e+00  6.6638214528632274e+00  6.6050760007423932e+00  6.5616072957909468e+00  6.5282045287772235e+00  6.5018862052733066e+00  6.4807141681425593e+00  9.1325534011854224e+00  9.1029535929482766e+00  9.0659418689362923e+00  9.0197603824850994e+00  8.9608486212317118e+00  8.8840258502259939e+00  8.7809751355049706e+00  8.6391212744178620e+00  8.4417837143058208e+00  8.1753683862131297e+00  7.8538255793616658e+00  7.5323121857051163e+00  7.2659266086826166e+00  7.0685834554204581e+00  6.9267331047250629e+00  6.8236918391986725e+00  6.7469112394735689e+00  6.6881450671430134e+00  6.6419873196347643e+00  6.6049845743985536e+00  6.5753823908813773e+00  9.0429259626448335e+00  9.0064610642011083e+00  8.9610713310337147e+00  8.9055509999859339e+00  8.8365818587667988e+00  8.7497032686600189e+00  8.6390532392190025e+00  8.4971977016912561e+00  8.3173921026108797e+00  8.0987657740603503e+00  7.8538157470734431e+00  7.6088665747534687e+00  7.3902390259696817e+00  7.2104338213796062e+00  7.0685834704381874e+00  6.9579532362155465e+00  6.8712388126160695e+00  6.8023505275757561e+00  6.7468546217691863e+00  6.7014769149005069e+00  6.6650113763652508e+00  8.9592377123060594e+00  8.9175689387302839e+00  8.8661293451451577e+00  8.8044629580562308e+00  8.7299507916387178e+00  8.6391579623161814e+00  8.5283958570544751e+00  8.3940879924073180e+00  8.2342135475338267e+00  8.0511406865050130e+00  7.8537785572722143e+00  7.6564166980372486e+00  7.4733452376663267e+00  7.3134750920551630e+00  7.1792137048334839e+00  7.0685834705764181e+00  6.9779296986521899e+00  6.9034476330247809e+00  6.8417979296964555e+00  6.7903718432371063e+00  6.7487026749964096e+00  8.8819525007836546e+00  8.8366464395236797e+00  8.7812389385601968e+00  8.7161012078151696e+00  8.6393142574339343e+00  8.5486350053858082e+00  8.4417972053411940e+00  8.3173648032204195e+00  8.1754536948796463e+00  8.0188656720723692e+00  7.8537456267341348e+00  7.6886333958943869e+00  7.5320910818602567e+00  7.3902556973620532e+00  7.2659281284734760e+00  7.1592372425014394e+00  7.0685834705770327e+00  6.9918159885230295e+00  6.9266949157355153e+00  6.8712996467755580e+00  6.8259921679248521e+00  8.8111681267967121e+00  8.7635861649798361e+00  8.7059220831666497e+00  8.6393448264530370e+00  8.5625606173597930e+00  8.4741726750539552e+00  8.3730572666470113e+00  8.2587637575145436e+00  8.1321377861183990e+00  7.9957134224206863e+00  7.8538166254326933e+00  7.7119353670035053e+00  7.5755601217743838e+00  7.4490218751805157e+00  7.3348164135564780e+00  7.2337193081290456e+00  7.1453509526310377e+00  7.0685834705770345e+00  7.0020207676621675e+00  6.9443677267513273e+00  6.8967817725847720e+00  8.7467144185349479e+00  8.6979749529330590e+00  8.6393738073095712e+00  8.5727982345686655e+00  8.4974577308932187e+00  8.4125456587856746e+00  8.3175855193504020e+00  8.2127030500317311e+00  8.0989082261210701e+00  7.9782833560639368e+00  7.8539262396476133e+00  7.7295806467467916e+00  7.6089631583142818e+00  7.4951796277824565e+00  7.3903123194072071e+00  7.2953690114575931e+00  7.2104720254185528e+00  7.1351461734919015e+00  7.0685834705770345e+00  7.0099919639780968e+00  6.9612422201873354e+00  8.6883971192593599e+00  8.6395081865217165e+00  8.5809065283338235e+00  8.5152653726792753e+00  8.4421793413992194e+00  8.3612333526448790e+00  8.2723214383059371e+00  8.1758142522426240e+00  8.0727037653266471e+00  7.9646668326245642e+00  7.8539875866863742e+00  7.7433109504695476e+00  7.6352814111622767e+00  7.5321823747374754e+00  7.4356900263043695e+00  7.3467950979171395e+00  7.2658672943785110e+00  7.1927992144027417e+00  7.1271749771759723e+00  7.0685834705770345e+00  7.0196084021427261e+00  8.6405463171054606e+00  8.5926086627427800e+00  8.5342990802637040e+00  8.4698507295275114e+00  8.3990646897065453e+00  8.3217724884834894e+00  8.2380742356132668e+00  8.1484363651725129e+00  8.0537624918318951e+00  7.9554067319821060e+00  7.8551020741442841e+00  7.7547996608475778e+00  7.6564498752935748e+00  7.5617845286447514e+00  7.4721555646933613e+00  7.3884642661574436e+00  7.3111747732292169e+00  7.2403851685692970e+00  7.1759247209667327e+00  7.1175585390113429e+00  7.0685834705770345e+00  4.5149799399092778e+00  4.9098738826713255e+00  3.9269908169887517e+00  4.4674203251639213e+00  4.1243814190178005e+00  4.3906491304327613e+00  4.9573914766508160e+00  4.7124008568572275e+00  5.0341754675322949e+00  5.3004177561068637e+00  5.4978333929447381e+00  3.3390016940222798e+00  3.7296002150400809e+00  3.3865613086880813e+00  3.4633324555883536e+00  4.2487268267212244e+00  3.6052546375695087e+00  3.9269809356278045e+00  5.1760581540157711e+00  4.7122233034216041e+00  5.4977927518348615e+00  5.6951958821899291e+00  5.8195434861274915e+00  5.9614647663735223e+00  6.0382236343787907e+00  6.0857992763787676e+00  9.2272930585551141e+00  9.4247660772139241e+00  9.1797754628130317e+00  9.1029913796961353e+00  9.4247733788712544e+00  8.9610995363968495e+00  8.6393729673577653e+00  6.2829834643157163e+00  7.8541559212271528e+00  7.0685979122061466e+00  6.2831859938545183e+00  6.7468327524618958e+00  6.6049587785481298e+00  6.5281812222434832e+00  6.4806592248887558e+00  8.8367492103082697e+00  8.6393341350923603e+00  8.3176357629126869e+00  8.4419717635260341e+00  8.1757070031440602e+00  7.3903354304290527e+00  7.8539697617665043e+00  7.5322115035495312e+00  6.8711988364502572e+00  7.2659674562612127e+00  7.0685829113176677e+00  8.0989457552569508e+00  8.0513752933423799e+00  7.6089878857711319e+00  7.6565108197874938e+00  </DataArray> 
</PointData> 
</Piece>
</UnstructuredGrid>
</VTKFile>