<?xml version="1.0"?>
<VTKFile type="UnstructuredGrid"  version="0.1"  >
<UnstructuredGrid>
<Piece  NumberOfPoints="497" NumberOfCells="912">
<Points>
<DataArray  type="Float64"  NumberOfComponents="3"  format="ascii">0 0 0  0.05 0 0  0.1 0 0  0.15 0 0  0.2 0 0  0.25 0 0  0.3 0 0  0.35 0 0  0.4 0 0  0.45 0 0  0.5 0 0  0.55 0 0  0.6 0 0  0.65 0 0  0.7 0 0  0.75 0 0  0.8 0 0  0.85 0 0  0.9 0 0  0.95 0 0  1 0 0  0 0.05 0  0.05 0.05 0  0.1 0.05 0  0.15 0.05 0  0.2 0.05 0  0.25 0.05 0  0.3 0.05 0  0.35 0.05 0  0.4 0.05 0  0.45 0.05 0  0.5 0.05 0  0.55 0.05 0  0.6 0.05 0  0.65 0.05 0  0.7 0.05 0  0.75 0.05 0  0.8 0.05 0  0.85 0.05 0  0.9 0.05 0  0.95 0.05 0  1 0.05 0  0 0.1 0  0.05 0.1 0  0.1 0.1 0  0.15 0.1 0  0.2 0.1 0  0.25 0.1 0  0.3 0.1 0  0.35 0.1 0  0.4 0.1 0  0.45 0.1 0  0.5 0.1 0  0.55 0.1 0  0.6 0.1 0  0.65 0.1 0  0.7 0.1 0  0.75 0.1 0  0.8 0.1 0  0.85 0.1 0  0.9 0.1 0  0.95 0.1 0  1 0.1 0  0 0.15 0  0.05 0.15 0  0.1 0.15 0  0.15 0.15 0  0.2 0.15 0  0.25 0.15 0  0.3 0.15 0  0.35 0.15 0  0.4 0.15 0  0.45 0.15 0  0.5 0.15 0  0.55 0.15 0  0.6 0.15 0  0.65 0.15 0  0.7 0.15 0  0.75 0.15 0  0.8 0.15 0  0.85 0.15 0  0.9 0.15 0  0.95 0.15 0  1 0.15 0  0 0.2 0  0.05 0.2 0  0.1 0.2 0  0.15 0.2 0  0.2 0.2 0  0.25 0.2 0  0.3 0.2 0  0.35 0.2 0  0.4 0.2 0  0.45 0.2 0  0.5 0.2 0  0.55 0.2 0  0.6 0.2 0  0.65 0.2 0  0.7 0.2 0  0.75 0.2 0  0.8 0.2 0  0.85 0.2 0  0.9 0.2 0  0.95 0.2 0  1 0.2 0  0 0.25 0  0.05 0.25 0  0.1 0.25 0  0.15 0.25 0  0.2 0.25 0  0.25 0.25 0  0.3 0.25 0  0.35 0.25 0  0.4 0.25 0  0.45 0.25 0  0.5 0.25 0  0.55 0.25 0  0.6 0.25 0  0.65 0.25 0  0.7 0.25 0  0.75 0.25 0  0.8 0.25 0  0.85 0.25 0  0.9 0.25 0  0.95 0.25 0  1 0.25 0  0 0.3 0  0.05 0.3 0  0.1 0.3 0  0.15 0.3 0  0.2 0.3 0  0.25 0.3 0  0.3 0.3 0  0.35 0.3 0  0.4 0.3 0  0.45 0.3 0  0.5 0.3 0  0.55 0.3 0  0.6 0.3 0  0.65 0.3 0  0.7 0.3 0  0.75 0.3 0  0.8 0.3 0  0.85 0.3 0  0.9 0.3 0  0.95 0.3 0  1 0.3 0  0 0.35 0  0.05 0.35 0  0.1 0.35 0  0.15 0.35 0  0.2 0.35 0  0.25 0.35 0  0.3 0.35 0  0.35 0.35 0  0.4 0.35 0  0.45 0.35 0  0.5 0.35 0  0.55 0.35 0  0.6 0.35 0  0.65 0.35 0  0.7 0.35 0  0.75 0.35 0  0.8 0.35 0  0.85 0.35 0  0.9 0.35 0  0.95 0.35 0  1 0.35 0  0 0.4 0  0.05 0.4 0  0.1 0.4 0  0.15 0.4 0  0.2 0.4 0  0.25 0.4 0  0.3 0.4 0  0.35 0.4 0  0.4 0.4 0  0.45 0.4 0  0.5 0.4 0  0.55 0.4 0  0.6 0.4 0  0.65 0.4 0  0.7 0.4 0  0.75 0.4 0  0.8 0.4 0  0.85 0.4 0  0.9 0.4 0  0.95 0.4 0  1 0.4 0  0 0.45 0  0.05 0.45 0  0.1 0.45 0  0.15 0.45 0  0.2 0.45 0  0.25 0.45 0  0.3 0.45 0  0.35 0.45 0  0.4 0.45 0  0.45 0.45 0  0.5 0.45 0  0.55 0.45 0  0.6 0.45 0  0.65 0.45 0  0.7 0.45 0  0.75 0.45 0  0.8 0.45 0  0.85 0.45 0  0.9 0.45 0  0.95 0.45 0  1 0.45 0  0 0.5 0  0.05 0.5 0  0.1 0.5 0  0.15 0.5 0  0.2 0.5 0  0.25 0.5 0  0.3 0.5 0  0.35 0.5 0  0.4 0.5 0  0.45 0.5 0  0.5 0.5 0  0.55 0.5 0  0.6 0.5 0  0.65 0.5 0  0.7 0.5 0  0.75 0.5 0  0.8 0.5 0  0.85 0.5 0  0.9 0.5 0  0.95 0.5 0  1 0.5 0  0 0.55 0  0.05 0.55 0  0.1 0.55 0  0.15 0.55 0  0.2 0.55 0  0.25 0.55 0  0.3 0.55 0  0.35 0.55 0  0.4 0.55 0  0.45 0.55 0  0.5 0.55 0  0.55 0.55 0  0.6 0.55 0  0.65 0.55 0  0.7 0.55 0  0.75 0.55 0  0.8 0.55 0  0.85 0.55 0  0.9 0.55 0  0.95 0.55 0  1 0.55 0  0 0.6 0  0.05 0.6 0  0.1 0.6 0  0.15 0.6 0  0.2 0.6 0  0.25 0.6 0  0.3 0.6 0  0.35 0.6 0  0.4 0.6 0  0.45 0.6 0  0.5 0.6 0  0.55 0.6 0  0.6 0.6 0  0.65 0.6 0  0.7 0.6 0  0.75 0.6 0  0.8 0.6 0  0.85 0.6 0  0.9 0.6 0  0.95 0.6 0  1 0.6 0  0 0.65 0  0.05 0.65 0  0.1 0.65 0  0.15 0.65 0  0.2 0.65 0  0.25 0.65 0  0.3 0.65 0  0.35 0.65 0  0.4 0.65 0  0.45 0.65 0  0.5 0.65 0  0.55 0.65 0  0.6 0.65 0  0.65 0.65 0  0.7 0.65 0  0.75 0.65 0  0.8 0.65 0  0.85 0.65 0  0.9 0.65 0  0.95 0.65 0  1 0.65 0  0 0.7 0  0.05 0.7 0  0.1 0.7 0  0.15 0.7 0  0.2 0.7 0  0.25 0.7 0  0.3 0.7 0  0.35 0.7 0  0.4 0.7 0  0.45 0.7 0  0.5 0.7 0  0.55 0.7 0  0.6 0.7 0  0.65 0.7 0  0.7 0.7 0  0.75 0.7 0  0.8 0.7 0  0.85 0.7 0  0.9 0.7 0  0.95 0.7 0  1 0.7 0  0 0.75 0  0.05 0.75 0  0.1 0.75 0  0.15 0.75 0  0.2 0.75 0  0.25 0.75 0  0.3 0.75 0  0.35 0.75 0  0.4 0.75 0  0.45 0.75 0  0.5 0.75 0  0.55 0.75 0  0.6 0.75 0  0.65 0.75 0  0.7 0.75 0  0.75 0.75 0  0.8 0.75 0  0.85 0.75 0  0.9 0.75 0  0.95 0.75 0  1 0.75 0  0 0.8 0  0.05 0.8 0  0.1 0.8 0  0.15 0.8 0  0.2 0.8 0  0.25 0.8 0  0.3 0.8 0  0.35 0.8 0  0.4 0.8 0  0.45 0.8 0  0.5 0.8 0  0.55 0.8 0  0.6 0.8 0  0.65 0.8 0  0.7 0.8 0  0.75 0.8 0  0.8 0.8 0  0.85 0.8 0  0.9 0.8 0  0.95 0.8 0  1 0.8 0  0 0.85 0  0.05 0.85 0  0.1 0.85 0  0.15 0.85 0  0.2 0.85 0  0.25 0.85 0  0.3 0.85 0  0.35 0.85 0  0.4 0.85 0  0.45 0.85 0  0.5 0.85 0  0.55 0.85 0  0.6 0.85 0  0.65 0.85 0  0.7 0.85 0  0.75 0.85 0  0.8 0.85 0  0.85 0.85 0  0.9 0.85 0  0.95 0.85 0  1 0.85 0  0 0.9 0  0.05 0.9 0  0.1 0.9 0  0.15 0.9 0  0.2 0.9 0  0.25 0.9 0  0.3 0.9 0  0.35 0.9 0  0.4 0.9 0  0.45 0.9 0  0.5 0.9 0  0.55 0.9 0  0.6 0.9 0  0.65 0.9 0  0.7 0.9 0  0.75 0.9 0  0.8 0.9 0  0.85 0.9 0  0.9 0.9 0  0.95 0.9 0  1 0.9 0  0 0.95 0  0.05 0.95 0  0.1 0.95 0  0.15 0.95 0  0.2 0.95 0  0.25 0.95 0  0.3 0.95 0  0.35 0.95 0  0.4 0.95 0  0.45 0.95 0  0.5 0.95 0  0.55 0.95 0  0.6 0.95 0  0.65 0.95 0  0.7 0.95 0  0.75 0.95 0  0.8 0.95 0  0.85 0.95 0  0.9 0.95 0  0.95 0.95 0  1 0.95 0  0 1 0  0.05 1 0  0.1 1 0  0.15 1 0  0.2 1 0  0.25 1 0  0.3 1 0  0.35 1 0  0.4 1 0  0.45 1 0  0.5 1 0  0.55 1 0  0.6 1 0  0.65 1 0  0.7 1 0  0.75 1 0  0.8 1 0  0.85 1 0  0.9 1 0  0.95 1 0  1 1 0  0.475 0.375 0  0.525 0.375 0  0.425 0.425 0  0.475 0.4 0  0.45 0.425 0  0.475 0.425 0  0.525 0.4 0  0.5 0.425 0  0.525 0.425 0  0.55 0.425 0  0.575 0.425 0  0.375 0.475 0  0.425 0.45 0  0.4 0.475 0  0.425 0.475 0  0.475 0.45 0  0.45 0.475 0  0.475 0.475 0  0.525 0.45 0  0.5 0.475 0  0.525 0.475 0  0.575 0.45 0  0.55 0.475 0  0.575 0.475 0  0.6 0.475 0  0.625 0.475 0  0.375 0.525 0  0.425 0.5 0  0.4 0.525 0  0.425 0.525 0  0.475 0.5 0  0.45 0.525 0  0.475 0.525 0  0.525 0.5 0  0.5 0.525 0  0.525 0.525 0  0.575 0.5 0  0.55 0.525 0  0.575 0.525 0  0.6 0.525 0  0.625 0.525 0  0.425 0.55 0  0.425 0.575 0  0.475 0.55 0  0.45 0.575 0  0.475 0.575 0  0.525 0.55 0  0.5 0.575 0  0.525 0.575 0  0.575 0.55 0  0.55 0.575 0  0.575 0.575 0  0.475 0.6 0  0.475 0.625 0  0.525 0.6 0  0.525 0.625 0  </DataArray>
</Points>
<Cells>
[...]
<PointData  Scalars="f_33"> 
<DataArray  type="Float64"  Name="f_33"  format="ascii">6.0661307920762630e-01  5.8422515051064006e-01  5.6234806888656752e-01  5.4135066080997929e-01  5.2166324481060877e-01  5.0376901567809429e-01  4.8817668285623173e-01  4.7539200536114973e-01  4.6587938069694695e-01  4.6001677622744563e-01  4.5805177059327085e-01  4.6006919548325448e-01  4.6597954014206294e-01  4.7553165534193020e-01  4.8834570993668663e-01  5.0395709349275131e-01  5.2186104020406243e-01  5.4155049393180210e-01  5.6254457982931194e-01  5.8442114075918750e-01  6.0678559587635306e-01  5.8422515051064006e-01  5.6146756192623992e-01  5.3748779362935584e-01  5.1427226638099921e-01  4.9235363494664730e-01  4.7228941040990530e-01  4.5468414433809634e-01  4.4015747212414857e-01  4.2929476919916915e-01  4.2258370131932893e-01  4.2034838927137025e-01  4.2269888960685781e-01  4.2951327437344589e-01  4.4045880915778035e-01  4.5504400600838646e-01  4.7268406160961357e-01  4.9276272916159808e-01  5.1468001777907546e-01  5.3788274988267781e-01  5.6183546552689823e-01  5.8443294401431978e-01  5.6234806888656752e-01  5.3748779362935584e-01  5.1107394552628871e-01  4.8529222824241069e-01  4.6074009203458166e-01  4.3805861655507972e-01  4.1797020073710611e-01  4.0124581683381866e-01  3.8864322203077395e-01  3.8081668220423587e-01  3.7821117726366593e-01  3.8097915136258564e-01  3.8894892797257519e-01  4.0166157775271016e-01  4.1845855379796876e-01  4.3858441980847179e-01  4.6127492537742182e-01  4.8581584328696698e-01  5.1157320415889740e-01  5.3794762577717581e-01  5.6259147652742170e-01  5.4135066080997929e-01  5.1427226638099921e-01  4.8529222824241064e-01  4.5674947104447217e-01  4.2929347483753283e-01  4.0364633337878775e-01  3.8066459476920161e-01  3.6130827794398857e-01  3.4656736931309479e-01  3.3734024396838547e-01  3.3426437187208541e-01  3.3755846068479289e-01  3.4697382739158139e-01  3.6185589437961002e-01  3.8130130842133353e-01  4.0431942839265039e-01  4.2996174210523547e-01  4.5738853370980365e-01  4.8588861148369838e-01  5.1481149439704421e-01  5.4162844961822432e-01  5.2166324481060877e-01  4.9235363494664730e-01  4.6074009203458166e-01  4.2929347483753283e-01  3.9869349272324661e-01  3.6973296563912733e-01  3.4339880567926906e-01  3.2087908529166737e-01  3.0347638092633561e-01  2.9245200359535384e-01  2.8875753905855706e-01  2.9273563486116033e-01  3.0400184188761531e-01  3.2158487458750712e-01  3.4421345939094100e-01  3.7058426262733285e-01  3.9952388612317991e-01  4.3006755691159865e-01  4.6144581661617073e-01  4.9297904498357209e-01  5.2197772437464784e-01  5.0376901567809429e-01  4.7228941040990524e-01  4.3805861655507972e-01  4.0364633337878780e-01  3.6973296563912733e-01  3.3713722497983184e-01  3.0696529426697500e-01  2.8060624193235745e-01  2.5977706751761298e-01  2.4633131869288893e-01  2.4178738324531943e-01  2.4671127579030461e-01  2.6045618695081690e-01  2.8148818971978112e-01  3.0796875376560184e-01  3.3818746112677628e-01  3.7074559971035465e-01  4.0457328084509769e-01  4.3888389756757346e-01  4.7300610728604475e-01  5.0412121350596495e-01  4.8817668285623173e-01  4.5468414433809634e-01  4.1797020073710611e-01  3.8066459476920167e-01  3.4339880567926906e-01  3.0696529426697500e-01  2.7245426448802051e-01  2.4143385716523927e-01  2.1609419459844520e-01  1.9924877626752166e-01  1.9345875539709620e-01  1.9975015817477312e-01  2.1699013779271928e-01  2.4252521344771441e-01  2.7365494045168220e-01  3.0820217037474185e-01  3.4459737860547263e-01  3.8174974187052624e-01  4.1891848691134020e-01  4.5549216453522612e-01  4.8856565532802831e-01  4.7539200536114973e-01  4.4015747212414857e-01  4.0124581683381866e-01  3.6130827794398862e-01  3.2087908529166737e-01  2.8060624193235745e-01  2.4143385716523943e-01  2.0490111521754181e-01  1.7361536943449413e-01  1.5269490685196038e-01  1.4483814745500148e-01  1.5215638658712899e-01  1.7474334354653645e-01  2.0624669010091265e-01  2.4284173532440079e-01  2.8201798421848928e-01  3.2223893835441358e-01  3.6253943690604723e-01  4.0230951998646447e-01  4.4104942098193062e-01  4.7581414349479950e-01  4.6587938069694695e-01  4.2929476919916915e-01  3.8864322203077395e-01  3.4656736931309473e-01  3.0347638092633555e-01  2.5977706751761298e-01  2.1609419459844537e-01  1.7361536943455327e-01  1.3549256502266760e-01  1.0737527378173559e-01  9.6703369602155489e-02  1.0862177194347815e-01  1.3590044900816908e-01  1.7519415635656527e-01  2.1771188050728582e-01  2.6133720750074380e-01  3.0495949225996527e-01  3.4791880844531492e-01  3.8980220888576389e-01  4.3025510492105307e-01  4.6632828448670605e-01  4.6001677622744563e-01  4.2258370131932887e-01  3.8081668220423587e-01  3.3734024396838552e-01  2.9245200359535378e-01  2.4633131869288577e-01  1.9924877626756024e-01  1.5269490685519074e-01  1.0737527375655542e-01  6.7164659232740412e-02  4.4398671728215516e-02  6.7544321561112439e-02  1.0915824263105818e-01  1.5341333641853633e-01  2.0108795644288208e-01  2.4806671985767428e-01  2.9406477782241519e-01  3.3880125452660909e-01  3.8205792781244990e-01  4.2360328073236964e-01  4.6049058138786564e-01  4.5805177059327085e-01  4.2034838927137025e-01  3.7821117726366593e-01  3.3426437187208546e-01  2.8875753905855739e-01  2.4178738324535631e-01  1.9345875540015225e-01  1.4483814747942056e-01  9.6703418137475280e-02  4.4498366407548395e-02  -1.1605721912922673e-02  4.5029185567929508e-02  9.7536903956578117e-02  1.4645084330284763e-01  1.9525635349611375e-01  2.4350261514438712e-01  2.9037204888967016e-01  3.3573739266758806e-01  3.7946551089352282e-01  4.2137841675955456e-01  4.5852945933398148e-01  4.6006919548325448e-01  4.2269888960685786e-01  3.8097915136258564e-01  3.3755846068479289e-01  2.9273563486116239e-01  2.4671127579076801e-01  1.9975015823302633e-01  1.5215639006721973e-01  1.0862171631479388e-01  6.7533453467028354e-02  4.4950173483649991e-02  6.7916020504393118e-02  1.0897966711810037e-01  1.5464880680052467e-01  2.0139283122907714e-01  2.4832384780435182e-01  2.9428551157007071e-01  3.3898429869590901e-01  3.8219842469426235e-01  4.2370514659294162e-01  4.6053707376550512e-01  4.6597954014206294e-01  4.2951327437344589e-01  3.8894892797257519e-01  3.4697382739158128e-01  3.0400184188760615e-01  2.6045618694851669e-01  2.1699013739980333e-01  1.7474329987371720e-01  1.3589754829892620e-01  1.0898973914064604e-01  9.7374305258903351e-02  1.0879644887816439e-01  1.3750383215350689e-01  1.7594278503228922e-01  2.1832458101296356e-01  2.6187069486690112e-01  3.0540722976385010e-01  3.4828168750851440e-01  3.9008096627711492e-01  4.3045809398379314e-01  4.6642124094812543e-01  4.7553165534193020e-01  4.4045880915778035e-01  4.0166157775271016e-01  3.6185589437960985e-01  3.2158487458747054e-01  2.8148818971069439e-01  2.4252521198579513e-01  2.0624654126506872e-01  1.7518534266329841e-01  1.5317976284755111e-01  1.4625886898425511e-01  1.5448141911547764e-01  1.7593645150349088e-01  2.0726863612996144e-01  2.4372594919475543e-01  2.8277241801112335e-01  3.2286733982947202e-01  3.6303675080034109e-01  4.0269216611862446e-01  4.4133152033027917e-01  4.7594362204024310e-01  4.8834570993668663e-01  4.5504400600838646e-01  4.1845855379796876e-01  3.8130130842133347e-01  3.4421345939091647e-01  3.0796875375950861e-01  2.7365493946921693e-01  2.4284163508215623e-01  2.1770594193035928e-01  2.0092932298297941e-01  1.9509363362313900e-01  2.0124890792702327e-01  2.1831888499127747e-01  2.4372585390192650e-01  2.7471178633857318e-01  3.0910610467656080e-01  3.4534511303981680e-01  3.8233676687460333e-01  4.1937276749930597e-01  4.5583164606365695e-01  4.8872115498749397e-01  5.0395709349275131e-01  4.7268406160961352e-01  4.3858441980847179e-01  4.0431942839265039e-01  3.7058426262731659e-01  3.3818746112282771e-01  3.0820216974222020e-01  2.8201791986248775e-01  2.6133339341710904e-01  2.4796374203655192e-01  2.4339892186807652e-01  2.4823367752824863e-01  2.6186702571451548e-01  2.8277235555498825e-01  3.0910610407568828e-01  3.3916547486993864e-01  3.7153726899994544e-01  4.0520248180631252e-01  4.3937828777912380e-01  4.7338117997200807e-01  5.0429252180082573e-01  5.2186104020406243e-01  4.9276272916159808e-01  4.6127492537742182e-01  4.2996174210523547e-01  3.9952388612317014e-01  3.7074559970803705e-01  3.4459737823562103e-01  3.2223890053950532e-01  3.0495721978889540e-01  2.9400169102415091e-01  2.9031035155934476e-01  2.9423349595638099e-01  3.0540500931436199e-01  3.2286730126215751e-01  3.4534511266406848e-01  3.7153726899769940e-01  4.0030681245735111e-01  4.3069930112017474e-01  4.6195340031957155e-01  4.9337039507061659e-01  5.2215583617057859e-01  5.4155049393180210e-01  5.1468001777907546e-01  4.8581584328696703e-01  4.5738853370980365e-01  4.3006755691159371e-01  4.0457328084396227e-01  3.8174974168661913e-01  3.6253941741949058e-01  3.4791757887735747e-01  3.3876506593864530e-01  3.3570337035450454e-01  3.3895697074083331e-01  3.4828042445583912e-01  3.6303672800770848e-01  3.8233676664951199e-01  4.0520248180496787e-01  4.3069930112017007e-01  4.5799841103926636e-01  4.8638937121516734e-01  5.1520371958831956e-01  5.4180622541948265e-01  5.6254457982931194e-01  5.3788274988267781e-01  5.1157320415889740e-01  4.8588861148369838e-01  4.6144581661616846e-01  4.3888389756704138e-01  4.1891848681725508e-01  4.0230950906934682e-01  3.8980146250736875e-01  3.8203462099957147e-01  3.7944419196994683e-01  3.8218147062278363e-01  3.9008011002736009e-01  4.0269214970754641e-01  4.1937276733045975e-01  4.3937828777808635e-01  4.6195340031956778e-01  4.8638937121516734e-01  5.1205388680177477e-01  5.3832940297380238e-01  5.6276348974212709e-01  5.8442114075918750e-01  5.6183546552689834e-01  5.3794762577717581e-01  5.1481149439704421e-01  4.9297904498356854e-01  4.7300610728517012e-01  4.5549216439395079e-01  4.4104940679947796e-01  4.3025431706502582e-01  4.2358599905692235e-01  4.2136247324140669e-01  4.2369250193334590e-01  4.3045744081618975e-01  4.4133150720656233e-01  4.5583164592219472e-01  4.7338117997110013e-01  4.9337039507061314e-01  5.1520371958831956e-01  5.3832940297380238e-01  5.6219407558791590e-01  5.8459099005074100e-01  6.0678559587635306e-01  5.8443294401431978e-01  5.6259147652742170e-01  5.4162844961822432e-01  5.2197772437464762e-01  5.0412121350586891e-01  4.8856565530220697e-01  4.7581413937681227e-01  4.6632795074433181e-01  4.6048202542785571e-01  4.5852170598598196e-01  4.6053103368742976e-01  4.6642132037532202e-01  4.7594362421945463e-01  4.8872115500513208e-01  5.0429252180090944e-01  5.2215583617057892e-01  5.4180622541948265e-01  5.6276348974212709e-01  5.8459099005074100e-01  6.0682832250968866e-01  1.2449696969035673e-01  1.2459998762306869e-01  1.0310627570238977e-01  1.0134753304786573e-01  8.8283566976372643e-02  7.5604117271494270e-02  1.0147030529618857e-01  7.3206043169865731e-02  7.5760381553595157e-02  8.8512646475792850e-02  1.0355176682595373e-01  1.2449696999554621e-01  8.8283565067737671e-02  1.0134753186987323e-01  7.5604041772798211e-02  5.3360613639672066e-02  5.3363071879676760e-02  2.8150070833411724e-02  5.3257484683040229e-02  1.7853703936852369e-02  2.2022958348399874e-02  8.8618012024303555e-02  5.3521727267553977e-02  7.6287956309461460e-02  1.0180129697947764e-01  1.2523817404657053e-01  1.2459998938163050e-01  7.3208786549529573e-02  1.0147042754419004e-01  7.5766953858115674e-02  2.1861857910448517e-02  5.3515820722061277e-02  2.8399594786269682e-02  1.1086385970714357e-02  1.7867338260108893e-02  1.2792160824805946e-02  7.3636558164950669e-02  5.3226644670033567e-02  7.6430206497840894e-02  1.0186348633235492e-01  1.2537799722708209e-01  8.8512358705867183e-02  1.0354835990787910e-01  5.3638668605477821e-02  8.8604201210668018e-02  7.6111102714210413e-02  5.3096697395057929e-02  7.3532641637733154e-02  7.6254679082274193e-02  8.8789679509235747e-02  8.8775762818672874e-02  1.0398533380882576e-01  1.0171787355419722e-01  1.2511449703473415e-01  1.0178323955430332e-01  1.2526247969377513e-01  </DataArray> 
</PointData> 
</Piece>
</UnstructuredGrid>
</VTKFile>