<?xml version="1.0"?>
<VTKFile type="UnstructuredGrid"  version="0.1"  >
<UnstructuredGrid>
<Piece  NumberOfPoints="497" NumberOfCells="912">
<Points>
<DataArray  type="Float64"  NumberOfComponents="3"  format="ascii">0 0 0  0.05 0 0  0.1 0 0  0.15 0 0  0.2 0 0  0.25 0 0  0.3 0 0  0.35 0 0  0.4 0 0  0.45 0 0  0.5 0 0  0.55 0 0  0.6 0 0  0.65 0 0  0.7 0 0  0.75 0 0  0.8 0 0  0.85 0 0  0.9 0 0  0.95 0 0  1 0 0  0 0.05 0  0.05 0.05 0  0.1 0.05 0  0.15 0.05 0  0.2 0.05 0  0.25 0.05 0  0.3 0.05 0  0.35 0.05 0  0.4 0.05 0  0.45 0.05 0  0.5 0.05 0  0.55 0.05 0  0.6 0.05 0  0.65 0.05 0  0.7 0.05 0  0.75 0.05 0  0.8 0.05 0  0.85 0.05 0  0.9 0.05 0  0.95 0.05 0  1 0.05 0  0 0.1 0  0.05 0.1 0  0.1 0.1 0  0.15 0.1 0  0.2 0.1 0  0.25 0.1 0  0.3 0.1 0  0.35 0.1 0  0.4 0.1 0  0.45 0.1 0  0.5 0.1 0  0.55 0.1 0  0.6 0.1 0  0.65 0.1 0  0.7 0.1 0  0.75 0.1 0  0.8 0.1 0  0.85 0.1 0  0.9 0.1 0  0.95 0.1 0  1 0.1 0  0 0.15 0  0.05 0.15 0  0.1 0.15 0  0.15 0.15 0  0.2 0.15 0  0.25 0.15 0  0.3 0.15 0  0.35 0.15 0  0.4 0.15 0  0.45 0.15 0  0.5 0.15 0  0.55 0.15 0  0.6 0.15 0  0.65 0.15 0  0.7 0.15 0  0.75 0.15 0  0.8 0.15 0  0.85 0.15 0  0.9 0.15 0  0.95 0.15 0  1 0.15 0  0 0.2 0  0.05 0.2 0  0.1 0.2 0  0.15 0.2 0  0.2 0.2 0  0.25 0.2 0  0.3 0.2 0  0.35 0.2 0  0.4 0.2 0  0.45 0.2 0  0.5 0.2 0  0.55 0.2 0  0.6 0.2 0  0.65 0.2 0  0.7 0.2 0  0.75 0.2 0  0.8 0.2 0  0.85 0.2 0  0.9 0.2 0  0.95 0.2 0  1 0.2 0  0 0.25 0  0.05 0.25 0  0.1 0.25 0  0.15 0.25 0  0.2 0.25 0  0.25 0.25 0  0.3 0.25 0  0.35 0.25 0  0.4 0.25 0  0.45 0.25 0  0.5 0.25 0  0.55 0.25 0  0.6 0.25 0  0.65 0.25 0  0.7 0.25 0  0.75 0.25 0  0.8 0.25 0  0.85 0.25 0  0.9 0.25 0  0.95 0.25 0  1 0.25 0  0 0.3 0  0.05 0.3 0  0.1 0.3 0  0.15 0.3 0  0.2 0.3 0  0.25 0.3 0  0.3 0.3 0  0.35 0.3 0  0.4 0.3 0  0.45 0.3 0  0.5 0.3 0  0.55 0.3 0  0.6 0.3 0  0.65 0.3 0  0.7 0.3 0  0.75 0.3 0  0.8 0.3 0  0.85 0.3 0  0.9 0.3 0  0.95 0.3 0  1 0.3 0  0 0.35 0  0.05 0.35 0  0.1 0.35 0  0.15 0.35 0  0.2 0.35 0  0.25 0.35 0  0.3 0.35 0  0.35 0.35 0  0.4 0.35 0  0.45 0.35 0  0.5 0.35 0  0.55 0.35 0  0.6 0.35 0  0.65 0.35 0  0.7 0.35 0  0.75 0.35 0  0.8 0.35 0  0.85 0.35 0  0.9 0.35 0  0.95 0.35 0  1 0.35 0  0 0.4 0  0.05 0.4 0  0.1 0.4 0  0.15 0.4 0  0.2 0.4 0  0.25 0.4 0  0.3 0.4 0  0.35 0.4 0  0.4 0.4 0  0.45 0.4 0  0.5 0.4 0  0.55 0.4 0  0.6 0.4 0  0.65 0.4 0  0.7 0.4 0  0.75 0.4 0  0.8 0.4 0  0.85 0.4 0  0.9 0.4 0  0.95 0.4 0  1 0.4 0  0 0.45 0  0.05 0.45 0  0.1 0.45 0  0.15 0.45 0  0.2 0.45 0  0.25 0.45 0  0.3 0.45 0  0.35 0.45 0  0.4 0.45 0  0.45 0.45 0  0.5 0.45 0  0.55 0.45 0  0.6 0.45 0  0.65 0.45 0  0.7 0.45 0  0.75 0.45 0  0.8 0.45 0  0.85 0.45 0  0.9 0.45 0  0.95 0.45 0  1 0.45 0  0 0.5 0  0.05 0.5 0  0.1 0.5 0  0.15 0.5 0  0.2 0.5 0  0.25 0.5 0  0.3 0.5 0  0.35 0.5 0  0.4 0.5 0  0.45 0.5 0  0.5 0.5 0  0.55 0.5 0  0.6 0.5 0  0.65 0.5 0  0.7 0.5 0  0.75 0.5 0  0.8 0.5 0  0.85 0.5 0  0.9 0.5 0  0.95 0.5 0  1 0.5 0  0 0.55 0  0.05 0.55 0  0.1 0.55 0  0.15 0.55 0  0.2 0.55 0  0.25 0.55 0  0.3 0.55 0  0.35 0.55 0  0.4 0.55 0  0.45 0.55 0  0.5 0.55 0  0.55 0.55 0  0.6 0.55 0  0.65 0.55 0  0.7 0.55 0  0.75 0.55 0  0.8 0.55 0  0.85 0.55 0  0.9 0.55 0  0.95 0.55 0  1 0.55 0  0 0.6 0  0.05 0.6 0  0.1 0.6 0  0.15 0.6 0  0.2 0.6 0  0.25 0.6 0  0.3 0.6 0  0.35 0.6 0  0.4 0.6 0  0.45 0.6 0  0.5 0.6 0  0.55 0.6 0  0.6 0.6 0  0.65 0.6 0  0.7 0.6 0  0.75 0.6 0  0.8 0.6 0  0.85 0.6 0  0.9 0.6 0  0.95 0.6 0  1 0.6 0  0 0.65 0  0.05 0.65 0  0.1 0.65 0  0.15 0.65 0  0.2 0.65 0  0.25 0.65 0  0.3 0.65 0  0.35 0.65 0  0.4 0.65 0  0.45 0.65 0  0.5 0.65 0  0.55 0.65 0  0.6 0.65 0  0.65 0.65 0  0.7 0.65 0  0.75 0.65 0  0.8 0.65 0  0.85 0.65 0  0.9 0.65 0  0.95 0.65 0  1 0.65 0  0 0.7 0  0.05 0.7 0  0.1 0.7 0  0.15 0.7 0  0.2 0.7 0  0.25 0.7 0  0.3 0.7 0  0.35 0.7 0  0.4 0.7 0  0.45 0.7 0  0.5 0.7 0  0.55 0.7 0  0.6 0.7 0  0.65 0.7 0  0.7 0.7 0  0.75 0.7 0  0.8 0.7 0  0.85 0.7 0  0.9 0.7 0  0.95 0.7 0  1 0.7 0  0 0.75 0  0.05 0.75 0  0.1 0.75 0  0.15 0.75 0  0.2 0.75 0  0.25 0.75 0  0.3 0.75 0  0.35 0.75 0  0.4 0.75 0  0.45 0.75 0  0.5 0.75 0  0.55 0.75 0  0.6 0.75 0  0.65 0.75 0  0.7 0.75 0  0.75 0.75 0  0.8 0.75 0  0.85 0.75 0  0.9 0.75 0  0.95 0.75 0  1 0.75 0  0 0.8 0  0.05 0.8 0  0.1 0.8 0  0.15 0.8 0  0.2 0.8 0  0.25 0.8 0  0.3 0.8 0  0.35 0.8 0  0.4 0.8 0  0.45 0.8 0  0.5 0.8 0  0.55 0.8 0  0.6 0.8 0  0.65 0.8 0  0.7 0.8 0  0.75 0.8 0  0.8 0.8 0  0.85 0.8 0  0.9 0.8 0  0.95 0.8 0  1 0.8 0  0 0.85 0  0.05 0.85 0  0.1 0.85 0  0.15 0.85 0  0.2 0.85 0  0.25 0.85 0  0.3 0.85 0  0.35 0.85 0  0.4 0.85 0  0.45 0.85 0  0.5 0.85 0  0.55 0.85 0  0.6 0.85 0  0.65 0.85 0  0.7 0.85 0  0.75 0.85 0  0.8 0.85 0  0.85 0.85 0  0.9 0.85 0  0.95 0.85 0  1 0.85 0  0 0.9 0  0.05 0.9 0  0.1 0.9 0  0.15 0.9 0  0.2 0.9 0  0.25 0.9 0  0.3 0.9 0  0.35 0.9 0  0.4 0.9 0  0.45 0.9 0  0.5 0.9 0  0.55 0.9 0  0.6 0.9 0  0.65 0.9 0  0.7 0.9 0  0.75 0.9 0  0.8 0.9 0  0.85 0.9 0  0.9 0.9 0  0.95 0.9 0  1 0.9 0  0 0.95 0  0.05 0.95 0  0.1 0.95 0  0.15 0.95 0  0.2 0.95 0  0.25 0.95 0  0.3 0.95 0  0.35 0.95 0  0.4 0.95 0  0.45 0.95 0  0.5 0.95 0  0.55 0.95 0  0.6 0.95 0  0.65 0.95 0  0.7 0.95 0  0.75 0.95 0  0.8 0.95 0  0.85 0.95 0  0.9 0.95 0  0.95 0.95 0  1 0.95 0  0 1 0  0.05 1 0  0.1 1 0  0.15 1 0  0.2 1 0  0.25 1 0  0.3 1 0  0.35 1 0  0.4 1 0  0.45 1 0  0.5 1 0  0.55 1 0  0.6 1 0  0.65 1 0  0.7 1 0  0.75 1 0  0.8 1 0  0.85 1 0  0.9 1 0  0.95 1 0  1 1 0  0.475 0.375 0  0.525 0.375 0  0.425 0.425 0  0.475 0.4 0  0.45 0.425 0  0.475 0.425 0  0.525 0.4 0  0.5 0.425 0  0.525 0.425 0  0.55 0.425 0  0.575 0.425 0  0.375 0.475 0  0.425 0.45 0  0.4 0.475 0  0.425 0.475 0  0.475 0.45 0  0.45 0.475 0  0.475 0.475 0  0.525 0.45 0  0.5 0.475 0  0.525 0.475 0  0.575 0.45 0  0.55 0.475 0  0.575 0.475 0  0.6 0.475 0  0.625 0.475 0  0.375 0.525 0  0.425 0.5 0  0.4 0.525 0  0.425 0.525 0  0.475 0.5 0  0.45 0.525 0  0.475 0.525 0  0.525 0.5 0  0.5 0.525 0  0.525 0.525 0  0.575 0.5 0  0.55 0.525 0  0.575 0.525 0  0.6 0.525 0  0.625 0.525 0  0.425 0.55 0  0.425 0.575 0  0.475 0.55 0  0.45 0.575 0  0.475 0.575 0  0.525 0.55 0  0.5 0.575 0  0.525 0.575 0  0.575 0.55 0  0.55 0.575 0  0.575 0.575 0  0.475 0.6 0  0.475 0.625 0  0.525 0.6 0  0.525 0.625 0  </DataArray>
</Points>
<Cells>
[...]
<PointData  Scalars="f_27"> 
<DataArray  type="Float64"  Name="f_27"  format="ascii">3.9269908169796208e+00  3.9456783310456216e+00  3.9927174599711486e+00  4.0560617879570593e+00  4.1292858328129851e+00  4.2102338884052406e+00  4.2982356947054390e+00  4.3926802031991841e+00  4.4925619940949488e+00  4.5963869670908073e+00  4.7022098591195931e+00  4.8077453896622382e+00  4.9113251549385311e+00  5.0110048820084838e+00  5.1052913908347088e+00  5.1931995549319723e+00  5.2741426335060151e+00  5.3474949936432852e+00  5.4113204148458376e+00  5.4600313153185311e+00  5.4835503562707721e+00  3.9083033029271155e+00  3.9269908170025034e+00  3.9719670138805210e+00  4.0343182551311401e+00  4.1081295680450198e+00  4.1909899717352035e+00  4.2821303556120718e+00  4.3809563457535319e+00  4.4864115843488150e+00  4.5967714109675182e+00  4.7096824275790397e+00  4.8223903916129780e+00  4.9323735928314330e+00  5.0373878423304568e+00  5.1357077221222518e+00  5.2263246901853044e+00  5.3087035464010768e+00  5.3821535127514633e+00  5.4445015610575327e+00  5.4904418457816764e+00  5.5117885973023739e+00  3.8612641740579501e+00  3.8820146202304784e+00  3.9269908170820877e+00  3.9893773988074184e+00  4.0643001120859941e+00  4.1498564702035274e+00  4.2457136161043652e+00  4.3515536885373827e+00  4.4662921311623958e+00  4.5878151739260788e+00  4.7129947839305357e+00  4.8380120941899634e+00  4.9590619610632434e+00  5.0731941300111627e+00  5.1784389635896524e+00  5.2737326787422543e+00  5.3587969331977208e+00  5.4333043327451644e+00  5.4954971413729163e+00  5.5408228634651469e+00  5.5627570658999010e+00  3.7979198463628312e+00  3.8196633797191670e+00  3.8646042360399977e+00  3.9269908176310904e+00  4.0029494817359268e+00  4.0915019411772855e+00  4.1930629830515667e+00  4.3079414074007394e+00  4.4352429598330563e+00  4.5723331336243112e+00  4.7148432354514149e+00  4.8571636248715677e+00  4.9935808890632849e+00  5.1198355704681635e+00  5.2336411517542647e+00  5.3344266732269023e+00  5.4224166356917110e+00  5.4979726120885219e+00  5.5600958513648884e+00  5.6050334396728392e+00  5.6271668224779070e+00  3.7246958033716657e+00  3.7458520720625197e+00  3.7896815284764647e+00  3.8510321587359559e+00  3.9269908224562164e+00  4.0177339464519664e+00  4.1249060541772637e+00  4.2498758437196429e+00  4.3925269593982641e+00  4.5499295852198269e+00  4.7158508685327520e+00  4.8816319579554408e+00  5.0384234447633967e+00  5.1800564396808726e+00  5.3035799348751924e+00  5.4093222409391970e+00  5.4991890892254904e+00  5.5746365399662468e+00  5.6356562912910739e+00  5.6793061733932859e+00  5.7005118786867532e+00  3.6437477604611077e+00  3.6629917040357332e+00  3.7041252125132740e+00  3.7624797397940930e+00  3.8362477367894652e+00  3.9269908586489035e+00  4.0380779582673769e+00  4.1730340745727812e+00  4.3336740224502837e+00  4.5175428468470660e+00  4.7157648296309951e+00  4.9139812968237111e+00  5.0975590631408823e+00  5.2576541497506835e+00  5.3916305716017670e+00  5.5011280402577496e+00  5.5904078248396445e+00  5.6634009234272487e+00  5.7213648204466203e+00  5.7622055710416786e+00  5.7813437911645753e+00  3.5557460316120433e+00  3.5718515323576763e+00  3.6082683391154600e+00  3.6609189687763366e+00  3.7290758873690244e+00  3.8159039988537660e+00  3.9269910665544692e+00  4.0694963269414783e+00  4.2501129936323503e+00  4.4694200263823909e+00  4.7150604721242431e+00  4.9609952667942592e+00  5.1803670138057516e+00  5.3606137880194185e+00  5.5026711361664082e+00  5.6128231200861425e+00  5.6980707620303335e+00  5.7650259939781963e+00  5.8171802253975358e+00  5.8532539579965128e+00  5.8691583952871724e+00  3.4613018706515297e+00  3.4730265730814462e+00  3.5024297691180601e+00  3.5460421215551232e+00  3.6041076366577744e+00  3.6809493485470557e+00  3.7844870363221212e+00  3.9269918763380636e+00  4.1253444524992240e+00  4.3933235284153378e+00  4.7134795376344343e+00  5.0349707329143998e+00  5.3040130308361420e+00  5.5019800578062732e+00  5.6442259411784104e+00  5.7473431903853358e+00  5.8231716358855889e+00  5.8798922491502239e+00  5.9228304579093489e+00  5.9519024468662165e+00  5.9633647293550194e+00  3.3614204761029085e+00  3.3675748699585202e+00  3.3876980401914736e+00  3.4187482518056287e+00  3.4614643516641492e+00  3.5203171962009239e+00  3.6038775718808411e+00  3.7286437478736416e+00  3.9269926440099767e+00  4.2483516696085948e+00  4.7130076274660944e+00  5.1778979494830137e+00  5.5005824257581635e+00  5.6987700239832924e+00  5.8235046530625860e+00  5.9069257748321204e+00  5.9652255913039731e+00  6.0069145408579701e+00  6.0373218432711555e+00  6.0570906352967793e+00  6.0629632126671460e+00  3.2575854697309068e+00  3.2572198569499728e+00  3.2661971741348417e+00  3.2816872747211603e+00  3.3040934176194807e+00  3.3364820322960558e+00  3.3846058110890862e+00  3.4606894621867301e+00  3.6056384883381787e+00  3.9269857054507078e+00  4.7124701692344049e+00  5.4983033874129594e+00  5.8198537223595430e+00  5.9662259942323743e+00  6.0414980785028947e+00  6.0892416980745256e+00  6.1212449128168345e+00  6.1431605767669542e+00  6.1584520520465356e+00  6.1671543002051612e+00  6.1664807085272884e+00  3.1516671854459690e+00  3.1442849641869248e+00  3.1410623997347162e+00  3.1392526803318854e+00  3.1382601532082526e+00  3.1383579317838679e+00  3.1390740556893908e+00  3.1406399510589003e+00  3.1410399169285745e+00  3.1413700907888233e+00  3.1420389498994719e+00  6.2831853071795862e+00  6.2831853071795862e+00  6.2831853071795862e+00  6.2831853071795862e+00  6.2831853071795862e+00  6.2831853071795862e+00  6.2831853071795862e+00  6.2829607493976463e+00  6.2797868999802438e+00  6.2721015284402091e+00  3.0457658607498637e+00  3.0314456410821835e+00  3.0160709989113244e+00  2.9970257235098980e+00  2.9725942661910718e+00  2.9402603263224001e+00  2.8932585543069567e+00  2.8193074787849977e+00  2.6761748479345955e+00  2.3557272347817304e+00  1.5708712747766447e+00  7.8540914455709587e-01  4.6537371725546822e-01  3.2145707543819180e-01  2.4690421776219076e-01  1.9972135211353445e-01  1.6749035865952810e-01  1.4353710514462717e-01  1.2485499737289307e-01  1.0931898728670363e-01  9.4613233151821199e-02  2.9419681486010467e+00  2.9213350186112206e+00  2.8949770422779308e+00  2.8605913824796558e+00  2.8157781478007893e+00  2.7566358679282952e+00  2.6738116094905164e+00  2.5501476110897396e+00  2.3535497444817000e+00  2.0341988728572438e+00  1.5701789294300508e+00  1.1055229882890212e+00  7.8549611059207158e-01  5.8865687720492554e-01  4.6515477782796827e-01  3.8250018578994649e-01  3.2385107380999162e-01  2.7995187902499713e-01  2.4593336914183050e-01  2.1931538908528528e-01  1.9827091204896297e-01  2.8421506048633591e+00  2.8162213279560486e+00  2.7807947302378779e+00  2.7343096396400575e+00  2.6741230177203725e+00  2.5965189401203617e+00  2.4935426673677514e+00  2.3521619291405202e+00  2.1553606060728976e+00  1.8877705015994397e+00  1.5683196842261391e+00  1.2494363693493742e+00  9.8242337805044899e-01  7.8557014593749219e-01  6.4435802555722388e-01  5.4176772826614517e-01  4.6506856593335616e-01  4.0611637072355183e-01  3.6002131645453467e-01  3.2429373891174323e-01  2.9795633113690390e-01  2.7477557932763208e+00  2.7178164716688458e+00  2.6755050036307400e+00  2.6204864142379307e+00  2.5505930555791942e+00  2.4625442051243898e+00  2.3514931753186334e+00  2.2099288218191151e+00  2.0306383947423532e+00  1.8124214512927603e+00  1.5680089837973776e+00  1.3239310202582752e+00  1.1059703550274300e+00  9.2682357842136609e-01  7.8560615865244843e-01  6.7540723815849457e-01  5.8885749142504662e-01  5.2000552118464938e-01  4.6519434690423822e-01  4.2262905000317014e-01  3.9226147023469649e-01  2.6597578220383697e+00  2.6271227489377562e+00  2.5801676891436185e+00  2.5196868649401778e+00  2.4448500436318690e+00  2.3530525464549599e+00  2.2413547223322601e+00  2.1068285173839585e+00  1.9472181994303694e+00  1.7645516543767115e+00  1.5676621144322507e+00  1.3710115403013157e+00  1.1886495053083281e+00  1.0294436272406420e+00  8.9582526907563786e-01  7.8562147528762905e-01  6.9517298507643210e-01  6.2097393383661281e-01  5.6055437203143477e-01  5.1332042712736881e-01  4.8021778382303676e-01  2.5787471699405429e+00  2.5446816479126362e+00  2.4950651054714630e+00  2.4316855083249007e+00  2.3549862668711858e+00  2.2637794471479316e+00  2.1561159644035848e+00  2.0310099936228521e+00  1.8889063213768209e+00  1.7324368517736335e+00  1.5676503469111978e+00  1.4031413148767868e+00  1.2472963727383772e+00  1.1061529617683084e+00  9.8237771721938694e-01  8.7606302514995449e-01  7.8560869073348361e-01  7.0925029603353595e-01  6.4588089929107140e-01  5.9588293145979776e-01  5.6124933753963235e-01  2.5053716888134185e+00  2.4712086990457087e+00  2.4205450653256437e+00  2.3561331591401040e+00  2.2795508143351357e+00  2.1907979495559720e+00  2.0891671505871976e+00  1.9742891472105062e+00  1.8472097813736112e+00  1.7105933965116600e+00  1.5687394229197305e+00  1.4271478694734399e+00  1.2911584442488342e+00  1.1650609836286006e+00  1.0511756839174486e+00  9.5019573184825978e-01  8.6188675645723278e-01  7.8552160889154965e-01  7.2104603111055554e-01  6.6989941185139767e-01  6.3490471639879908e-01  2.4416207785223158e+00  2.4089208949726726e+00  2.3584001059407100e+00  2.2940511687452201e+00  2.2185630015951108e+00  2.1328512713364245e+00  2.0370118892302465e+00  1.9313311145183567e+00  1.8167856134437241e+00  1.6954949006275268e+00  1.5706279570433725e+00  1.4459266956964769e+00  1.3250132654431159e+00  1.2109559159003931e+00  1.1057750192981133e+00  1.0103937135946246e+00  9.2502658545834926e-01  8.4976689076497747e-01  7.8530180917502435e-01  7.3406069308701494e-01  6.9993951027079704e-01  2.3931132107082567e+00  2.3631416686519442e+00  2.3131970750733180e+00  2.2491969646073255e+00  2.1749601493522128e+00  2.0920207487026850e+00  2.0009078240590044e+00  1.9021846550636501e+00  1.7969051644091532e+00  1.6867064441066111e+00  1.5738964241266737e+00  1.4611621863358899e+00  1.3511986650497174e+00  1.2462322806483066e+00  1.1478937558235385e+00  1.0571919973081887e+00  9.7460649518735509e-01  9.0052692661166767e-01  8.3621161838014724e-01  7.8500568181260488e-01  7.5243505334340810e-01  2.3697327403234527e+00  2.3419627603535145e+00  2.2914161278066016e+00  2.2271563123356648e+00  2.1537901607480965e+00  2.0728714576643350e+00  1.9849456467993483e+00  1.8906126884157055e+00  1.7908662415414205e+00  1.6871586559280454e+00  1.5813083920424307e+00  1.4754038323332550e+00  1.3717431938401208e+00  1.2720820153196923e+00  1.1777973536898636e+00  1.0898609086589661e+00  1.0088451962805214e+00  9.3518076798442928e-01  8.7005925907417692e-01  8.1734171499613995e-01  7.8473424389527224e-01  4.5151680471225708e+00  4.9108710082848237e+00  3.9269916176138651e+00  4.4677436412856739e+00  4.1243065802570191e+00  4.3909396446342193e+00  4.9577171455969031e+00  4.7125977074532583e+00  5.0346542113600723e+00  5.3007959725704312e+00  5.4985177023173915e+00  3.3388388310666950e+00  3.7296748503106345e+00  3.3862470732930801e+00  3.4630383134703759e+00  4.2486500286261393e+00  3.6053004252403302e+00  3.9268070657657277e+00  5.1762309369167658e+00  4.7117814012135852e+00  5.4978894064215167e+00  5.6954408978354518e+00  5.8197249190305342e+00  5.9619460752169173e+00  6.0385189682848628e+00  6.0861907067078862e+00  2.9432095197743120e+00  3.1414019403743354e+00  2.8963056236082925e+00  2.8193871915718973e+00  3.1415528767411245e+00  2.6776378656157642e+00  2.3561788010715286e+00  6.2827565645794232e+00  1.5714871212744701e+00  7.8549806367118591e-01  6.2831853071795862e+00  4.6359146473275736e-01  3.2193598175502813e-01  2.4513882508342663e-01  1.9825621792510364e-01  2.5532032908823385e+00  2.3555086854892973e+00  2.0344226316514682e+00  2.1585618438122691e+00  1.8920829447064054e+00  1.1072209923119598e+00  1.5706084134475020e+00  1.2488747721575617e+00  5.8819489568215422e-01  9.8261041777172009e-01  7.8541848593915042e-01  1.8154597832878134e+00  1.7677279732138687e+00  1.3256431537492952e+00  1.3724675792192262e+00  </DataArray> 
</PointData> 
</Piece>
</UnstructuredGrid>
</VTKFile>