<?xml version="1.0"?>
<VTKFile type="UnstructuredGrid"  version="0.1"  >
<UnstructuredGrid>
<Piece  NumberOfPoints="497" NumberOfCells="912">
<Points>
<DataArray  type="Float64"  NumberOfComponents="3"  format="ascii">0 0 0  0.05 0 0  0.1 0 0  0.15 0 0  0.2 0 0  0.25 0 0  0.3 0 0  0.35 0 0  0.4 0 0  0.45 0 0  0.5 0 0  0.55 0 0  0.6 0 0  0.65 0 0  0.7 0 0  0.75 0 0  0.8 0 0  0.85 0 0  0.9 0 0  0.95 0 0  1 0 0  0 0.05 0  0.05 0.05 0  0.1 0.05 0  0.15 0.05 0  0.2 0.05 0  0.25 0.05 0  0.3 0.05 0  0.35 0.05 0  0.4 0.05 0  0.45 0.05 0  0.5 0.05 0  0.55 0.05 0  0.6 0.05 0  0.65 0.05 0  0.7 0.05 0  0.75 0.05 0  0.8 0.05 0  0.85 0.05 0  0.9 0.05 0  0.95 0.05 0  1 0.05 0  0 0.1 0  0.05 0.1 0  0.1 0.1 0  0.15 0.1 0  0.2 0.1 0  0.25 0.1 0  0.3 0.1 0  0.35 0.1 0  0.4 0.1 0  0.45 0.1 0  0.5 0.1 0  0.55 0.1 0  0.6 0.1 0  0.65 0.1 0  0.7 0.1 0  0.75 0.1 0  0.8 0.1 0  0.85 0.1 0  0.9 0.1 0  0.95 0.1 0  1 0.1 0  0 0.15 0  0.05 0.15 0  0.1 0.15 0  0.15 0.15 0  0.2 0.15 0  0.25 0.15 0  0.3 0.15 0  0.35 0.15 0  0.4 0.15 0  0.45 0.15 0  0.5 0.15 0  0.55 0.15 0  0.6 0.15 0  0.65 0.15 0  0.7 0.15 0  0.75 0.15 0  0.8 0.15 0  0.85 0.15 0  0.9 0.15 0  0.95 0.15 0  1 0.15 0  0 0.2 0  0.05 0.2 0  0.1 0.2 0  0.15 0.2 0  0.2 0.2 0  0.25 0.2 0  0.3 0.2 0  0.35 0.2 0  0.4 0.2 0  0.45 0.2 0  0.5 0.2 0  0.55 0.2 0  0.6 0.2 0  0.65 0.2 0  0.7 0.2 0  0.75 0.2 0  0.8 0.2 0  0.85 0.2 0  0.9 0.2 0  0.95 0.2 0  1 0.2 0  0 0.25 0  0.05 0.25 0  0.1 0.25 0  0.15 0.25 0  0.2 0.25 0  0.25 0.25 0  0.3 0.25 0  0.35 0.25 0  0.4 0.25 0  0.45 0.25 0  0.5 0.25 0  0.55 0.25 0  0.6 0.25 0  0.65 0.25 0  0.7 0.25 0  0.75 0.25 0  0.8 0.25 0  0.85 0.25 0  0.9 0.25 0  0.95 0.25 0  1 0.25 0  0 0.3 0  0.05 0.3 0  0.1 0.3 0  0.15 0.3 0  0.2 0.3 0  0.25 0.3 0  0.3 0.3 0  0.35 0.3 0  0.4 0.3 0  0.45 0.3 0  0.5 0.3 0  0.55 0.3 0  0.6 0.3 0  0.65 0.3 0  0.7 0.3 0  0.75 0.3 0  0.8 0.3 0  0.85 0.3 0  0.9 0.3 0  0.95 0.3 0  1 0.3 0  0 0.35 0  0.05 0.35 0  0.1 0.35 0  0.15 0.35 0  0.2 0.35 0  0.25 0.35 0  0.3 0.35 0  0.35 0.35 0  0.4 0.35 0  0.45 0.35 0  0.5 0.35 0  0.55 0.35 0  0.6 0.35 0  0.65 0.35 0  0.7 0.35 0  0.75 0.35 0  0.8 0.35 0  0.85 0.35 0  0.9 0.35 0  0.95 0.35 0  1 0.35 0  0 0.4 0  0.05 0.4 0  0.1 0.4 0  0.15 0.4 0  0.2 0.4 0  0.25 0.4 0  0.3 0.4 0  0.35 0.4 0  0.4 0.4 0  0.45 0.4 0  0.5 0.4 0  0.55 0.4 0  0.6 0.4 0  0.65 0.4 0  0.7 0.4 0  0.75 0.4 0  0.8 0.4 0  0.85 0.4 0  0.9 0.4 0  0.95 0.4 0  1 0.4 0  0 0.45 0  0.05 0.45 0  0.1 0.45 0  0.15 0.45 0  0.2 0.45 0  0.25 0.45 0  0.3 0.45 0  0.35 0.45 0  0.4 0.45 0  0.45 0.45 0  0.5 0.45 0  0.55 0.45 0  0.6 0.45 0  0.65 0.45 0  0.7 0.45 0  0.75 0.45 0  0.8 0.45 0  0.85 0.45 0  0.9 0.45 0  0.95 0.45 0  1 0.45 0  0 0.5 0  0.05 0.5 0  0.1 0.5 0  0.15 0.5 0  0.2 0.5 0  0.25 0.5 0  0.3 0.5 0  0.35 0.5 0  0.4 0.5 0  0.45 0.5 0  0.5 0.5 0  0.55 0.5 0  0.6 0.5 0  0.65 0.5 0  0.7 0.5 0  0.75 0.5 0  0.8 0.5 0  0.85 0.5 0  0.9 0.5 0  0.95 0.5 0  1 0.5 0  0 0.55 0  0.05 0.55 0  0.1 0.55 0  0.15 0.55 0  0.2 0.55 0  0.25 0.55 0  0.3 0.55 0  0.35 0.55 0  0.4 0.55 0  0.45 0.55 0  0.5 0.55 0  0.55 0.55 0  0.6 0.55 0  0.65 0.55 0  0.7 0.55 0  0.75 0.55 0  0.8 0.55 0  0.85 0.55 0  0.9 0.55 0  0.95 0.55 0  1 0.55 0  0 0.6 0  0.05 0.6 0  0.1 0.6 0  0.15 0.6 0  0.2 0.6 0  0.25 0.6 0  0.3 0.6 0  0.35 0.6 0  0.4 0.6 0  0.45 0.6 0  0.5 0.6 0  0.55 0.6 0  0.6 0.6 0  0.65 0.6 0  0.7 0.6 0  0.75 0.6 0  0.8 0.6 0  0.85 0.6 0  0.9 0.6 0  0.95 0.6 0  1 0.6 0  0 0.65 0  0.05 0.65 0  0.1 0.65 0  0.15 0.65 0  0.2 0.65 0  0.25 0.65 0  0.3 0.65 0  0.35 0.65 0  0.4 0.65 0  0.45 0.65 0  0.5 0.65 0  0.55 0.65 0  0.6 0.65 0  0.65 0.65 0  0.7 0.65 0  0.75 0.65 0  0.8 0.65 0  0.85 0.65 0  0.9 0.65 0  0.95 0.65 0  1 0.65 0  0 0.7 0  0.05 0.7 0  0.1 0.7 0  0.15 0.7 0  0.2 0.7 0  0.25 0.7 0  0.3 0.7 0  0.35 0.7 0  0.4 0.7 0  0.45 0.7 0  0.5 0.7 0  0.55 0.7 0  0.6 0.7 0  0.65 0.7 0  0.7 0.7 0  0.75 0.7 0  0.8 0.7 0  0.85 0.7 0  0.9 0.7 0  0.95 0.7 0  1 0.7 0  0 0.75 0  0.05 0.75 0  0.1 0.75 0  0.15 0.75 0  0.2 0.75 0  0.25 0.75 0  0.3 0.75 0  0.35 0.75 0  0.4 0.75 0  0.45 0.75 0  0.5 0.75 0  0.55 0.75 0  0.6 0.75 0  0.65 0.75 0  0.7 0.75 0  0.75 0.75 0  0.8 0.75 0  0.85 0.75 0  0.9 0.75 0  0.95 0.75 0  1 0.75 0  0 0.8 0  0.05 0.8 0  0.1 0.8 0  0.15 0.8 0  0.2 0.8 0  0.25 0.8 0  0.3 0.8 0  0.35 0.8 0  0.4 0.8 0  0.45 0.8 0  0.5 0.8 0  0.55 0.8 0  0.6 0.8 0  0.65 0.8 0  0.7 0.8 0  0.75 0.8 0  0.8 0.8 0  0.85 0.8 0  0.9 0.8 0  0.95 0.8 0  1 0.8 0  0 0.85 0  0.05 0.85 0  0.1 0.85 0  0.15 0.85 0  0.2 0.85 0  0.25 0.85 0  0.3 0.85 0  0.35 0.85 0  0.4 0.85 0  0.45 0.85 0  0.5 0.85 0  0.55 0.85 0  0.6 0.85 0  0.65 0.85 0  0.7 0.85 0  0.75 0.85 0  0.8 0.85 0  0.85 0.85 0  0.9 0.85 0  0.95 0.85 0  1 0.85 0  0 0.9 0  0.05 0.9 0  0.1 0.9 0  0.15 0.9 0  0.2 0.9 0  0.25 0.9 0  0.3 0.9 0  0.35 0.9 0  0.4 0.9 0  0.45 0.9 0  0.5 0.9 0  0.55 0.9 0  0.6 0.9 0  0.65 0.9 0  0.7 0.9 0  0.75 0.9 0  0.8 0.9 0  0.85 0.9 0  0.9 0.9 0  0.95 0.9 0  1 0.9 0  0 0.95 0  0.05 0.95 0  0.1 0.95 0  0.15 0.95 0  0.2 0.95 0  0.25 0.95 0  0.3 0.95 0  0.35 0.95 0  0.4 0.95 0  0.45 0.95 0  0.5 0.95 0  0.55 0.95 0  0.6 0.95 0  0.65 0.95 0  0.7 0.95 0  0.75 0.95 0  0.8 0.95 0  0.85 0.95 0  0.9 0.95 0  0.95 0.95 0  1 0.95 0  0 1 0  0.05 1 0  0.1 1 0  0.15 1 0  0.2 1 0  0.25 1 0  0.3 1 0  0.35 1 0  0.4 1 0  0.45 1 0  0.5 1 0  0.55 1 0  0.6 1 0  0.65 1 0  0.7 1 0  0.75 1 0  0.8 1 0  0.85 1 0  0.9 1 0  0.95 1 0  1 1 0  0.475 0.375 0  0.525 0.375 0  0.425 0.425 0  0.475 0.4 0  0.45 0.425 0  0.475 0.425 0  0.525 0.4 0  0.5 0.425 0  0.525 0.425 0  0.55 0.425 0  0.575 0.425 0  0.375 0.475 0  0.425 0.45 0  0.4 0.475 0  0.425 0.475 0  0.475 0.45 0  0.45 0.475 0  0.475 0.475 0  0.525 0.45 0  0.5 0.475 0  0.525 0.475 0  0.575 0.45 0  0.55 0.475 0  0.575 0.475 0  0.6 0.475 0  0.625 0.475 0  0.375 0.525 0  0.425 0.5 0  0.4 0.525 0  0.425 0.525 0  0.475 0.5 0  0.45 0.525 0  0.475 0.525 0  0.525 0.5 0  0.5 0.525 0  0.525 0.525 0  0.575 0.5 0  0.55 0.525 0  0.575 0.525 0  0.6 0.525 0  0.625 0.525 0  0.425 0.55 0  0.425 0.575 0  0.475 0.55 0  0.45 0.575 0  0.475 0.575 0  0.525 0.55 0  0.5 0.575 0  0.525 0.575 0  0.575 0.55 0  0.55 0.575 0  0.575 0.575 0  0.475 0.6 0  0.475 0.625 0  0.525 0.6 0  0.525 0.625 0  </DataArray>
</Points>
<Cells>
[...]
<PointData  Scalars="f_27"> 
<DataArray  type="Float64"  Name="f_27"  format="ascii">3.9269908169872414e+00  3.9738016457775132e+00  4.0320820253573775e+00  4.0965275307823186e+00  4.1673120917164246e+00  4.2446041757319097e+00  4.3283037778276006e+00  4.4179443763514978e+00  4.5126220435622981e+00  4.6109820671655184e+00  4.7112907821785814e+00  4.8115964452109266e+00  4.9099479904995276e+00  5.0046135399686467e+00  5.0942409785092364e+00  5.1779292288480079e+00  5.2552144403704153e+00  5.3259988143573569e+00  5.3904525226191202e+00  5.4487698218947083e+00  5.4966206240486084e+00  3.8801799881969696e+00  3.9269908169872414e+00  3.9854711557064713e+00  4.0511007439246001e+00  4.1241804710489811e+00  4.2051226825821297e+00  4.2940336532087811e+00  4.3905429803021789e+00  4.4936588313358401e+00  4.6017033505214187e+00  4.7123906365861119e+00  4.8230751227564195e+00  4.9311108179910388e+00  5.0342133482057907e+00  5.1307058769529617e+00  5.2195980024237860e+00  5.3005205016303893e+00  5.3735807761742356e+00  5.4391919882210118e+00  5.4976587546323517e+00  5.5445582784112899e+00  3.8218996086171066e+00  3.8685104782680115e+00  3.9269908169872414e+00  3.9935533978946052e+00  4.0688863579848764e+00  4.1537937155056621e+00  4.2487539867297794e+00  4.3536421062663360e+00  4.4674466495494451e+00  4.5880838030281428e+00  4.7124517740399723e+00  4.8368117748162831e+00  4.9574368847012256e+00  5.0712250722177776e+00  5.1760956101203552e+00  5.2710375960089113e+00  5.3559280025938714e+00  5.4312448579874193e+00  5.4977931338444970e+00  5.5562604128202455e+00  5.6028678608903659e+00  3.7574541031921647e+00  3.8028808900498827e+00  3.8604282360798776e+00  3.9269908169872414e+00  4.0037655365640354e+00  4.0921489139381988e+00  4.1932652378691380e+00  4.3075563961442649e+00  4.4341953332875903e+00  4.5706375532560575e+00  4.7125649152552045e+00  4.8544731611184320e+00  4.9908575519498379e+00  5.1174065586689688e+00  5.2316159411681333e+00  5.3327039830978373e+00  5.4210657333388994e+00  5.4978221147010311e+00  5.5643687065854026e+00  5.6219015684747937e+00  5.6673162116265567e+00  3.6866695422580595e+00  3.7298011629255008e+00  3.7850952759896068e+00  3.8502160974104469e+00  3.9269908169872414e+00  4.0176596284448127e+00  4.1244286907200118e+00  4.2488209421988516e+00  4.3907724734300198e+00  4.5474339089344316e+00  4.7126338080319981e+00  4.8778230873751163e+00  5.0344430437927752e+00  5.1763183199223572e+00  5.3005850823872720e+00  5.4072161495153521e+00  5.4978526837201365e+00  5.5746063237942787e+00  5.6397092102608521e+00  5.6949875997548522e+00  5.7381022514475228e+00  3.6093774582425735e+00  3.6488589513923531e+00  3.7001879184688224e+00  3.7618327200362836e+00  3.8363220055296705e+00  3.9269908169872414e+00  4.0376765168470836e+00  4.1720444748053129e+00  4.3320009620351323e+00  4.5151595989802020e+00  4.7126068585483960e+00  4.9100504083171570e+00  5.0931994913721610e+00  5.2531410909287244e+00  5.3874636724946425e+00  5.4980089788383566e+00  5.5885319357686258e+00  5.6629942661003723e+00  5.7246212823689735e+00  5.7759335885099059e+00  5.8153944526704260e+00  3.5256778561468822e+00  3.5599479807657008e+00  3.6052276472447042e+00  3.6607163961053444e+00  3.7295529432544723e+00  3.8163051171273987e+00  3.9269908169872414e+00  4.0689254906456300e+00  4.2488196843391002e+00  4.4675340370389689e+00  4.7125711214284465e+00  4.9576076000090836e+00  5.1763127473902921e+00  5.3561918057864588e+00  5.4981137020502215e+00  5.6087710841876142e+00  5.6953697358803943e+00  5.7641096745735796e+00  5.8195814219038482e+00  5.8648455029733562e+00  5.8990927054887816e+00  3.4360372576229876e+00  3.4634386536723025e+00  3.5003395277081482e+00  3.5464252378302175e+00  3.6051606917756325e+00  3.6819371591691694e+00  3.7850561433288532e+00  3.9269908169872414e+00  4.1244246508900320e+00  4.3908697934001291e+00  4.7124560987907147e+00  5.0341341331284797e+00  5.3006328885663185e+00  5.4980456845809069e+00  5.6399692535236854e+00  5.7430789594924683e+00  5.8198021468154897e+00  5.8784031930274852e+00  5.9244639037155693e+00  5.9613527030974129e+00  5.9887305642917754e+00  3.3413595904121838e+00  3.3603228026386427e+00  3.3865349844250372e+00  3.4197863006868925e+00  3.4632091605444622e+00  3.5219806719393483e+00  3.6051619496353822e+00  3.7295569830844495e+00  3.9269908169873133e+00  4.2486213482042627e+00  4.7124276612949751e+00  5.1762344114657868e+00  5.4979695882720350e+00  5.6953844527344399e+00  5.8197758182288668e+00  5.9029542040033478e+00  5.9617140050699584e+00  6.0050299821507007e+00  6.0382596973716502e+00  6.0644641407106237e+00  6.0834028679171599e+00  3.2429995668089635e+00  3.2522782834530637e+00  3.2658978309463387e+00  3.2833440807184244e+00  3.3065477250400495e+00  3.3388220349942759e+00  3.3864475969355063e+00  3.4631118405741579e+00  3.6053602857947094e+00  3.9269908144746082e+00  4.7123964922688613e+00  5.4978194159749014e+00  5.8195021210587878e+00  5.9618114618489129e+00  6.0384293556050945e+00  6.0860571454013073e+00  6.1183336957564300e+00  6.1414875499485069e+00  6.1589193082004012e+00  6.1725294135809996e+00  6.1816624194941818e+00  3.1426908517959005e+00  3.1415909973883682e+00  3.1415298599345109e+00  3.1414167187192787e+00  3.1413478259424843e+00  3.1413747754260801e+00  3.1414105125440872e+00  3.1415255351833462e+00  3.1415539688747010e+00  3.1415770675595618e+00  3.1418303052316956e+00  6.2831850462390637e+00  6.2831853071795862e+00  6.2831853071795862e+00  6.2831853071795862e+00  6.2831853071795862e+00  6.2831853071795862e+00  6.2831853071795862e+00  6.2831853071795862e+00  6.2831693059772871e+00  6.2819246100037605e+00  3.0423851887635553e+00  3.0309065112180633e+00  3.0171698591581997e+00  2.9995084728560517e+00  2.9761585465993678e+00  2.9439312256575452e+00  2.8963740340037543e+00  2.8198475049173686e+00  2.6777472344649005e+00  2.3561633958490864e+00  1.5708008279549068e+00  7.8539755127040323e-01  4.6383493546686122e-01  3.2169541603203800e-01  2.4514038538348346e-01  1.9759393205334280e-01  1.6537950391339454e-01  1.4207962725140680e-01  1.2443609331731410e-01  1.1069465042483573e-01  9.9005732952996528e-02  2.9440336434749543e+00  2.9228708159834453e+00  2.8965447492732586e+00  2.8631240820246449e+00  2.8195385901817116e+00  2.7607821426031953e+00  2.6776688867342009e+00  2.5533487628735378e+00  2.3560133739235911e+00  2.0344964733411461e+00  1.5707574516649785e+00  1.1069642004757403e+00  7.8539751365986399e-01  5.8805417387919023e-01  4.6374194863518692e-01  3.8063614568364118e-01  3.2189069356280664e-01  2.7842198861136075e-01  2.4501922159763739e-01  2.1870089809372067e-01  1.9752886096297309e-01  2.8493680940058357e+00  2.8197682857686908e+00  2.7827565617567052e+00  2.7365750753055140e+00  2.6776633140521260e+00  2.6008405430464072e+00  2.4977898283253848e+00  2.3559359672382754e+00  2.1585984071262350e+00  1.8921830790335428e+00  1.5706402721820798e+00  1.2491268785255298e+00  9.8274130150303063e-01  7.8539814824087195e-01  6.4354779754547631e-01  5.4050653201908661e-01  4.6372593229398257e-01  4.0495975996342726e-01  3.5880201245517784e-01  3.2179926721896768e-01  2.9219708370179148e-01  2.7597406554652477e+00  2.7232757570215211e+00  2.6778860238541280e+00  2.6223656928063477e+00  2.5533965515872121e+00  2.4665179614804327e+00  2.3558679320394171e+00  2.2140123945116694e+00  2.0342067954312939e+00  1.8155804668807636e+00  1.5706304398938571e+00  1.3256812675738825e+00  1.1070537187900957e+00  9.2724851420001952e-01  7.8539816325860101e-01  6.7476792903596039e-01  5.8805350543648360e-01  5.1916522039616986e-01  4.6366931458960042e-01  4.1829160772092050e-01  3.8182606918566464e-01  2.6760524051264740e+00  2.6343836315506972e+00  2.5829440379655719e+00  2.5212776508766446e+00  2.4467654844591324e+00  2.3559726551365947e+00  2.2452105498748889e+00  2.1109026852277313e+00  1.9510282403542412e+00  1.7679553793254275e+00  1.5705932500926276e+00  1.3732313908576625e+00  1.1901599304867403e+00  1.0302897848755765e+00  8.9602839765389741e-01  7.8539816339683177e-01  6.9474439147260414e-01  6.2026232584519436e-01  5.5861262251686927e-01  5.0718653605752007e-01  4.6551736781682335e-01  2.5987671936040679e+00  2.5534611323440926e+00  2.4980536313806101e+00  2.4329159006355838e+00  2.3561289502543481e+00  2.2654496982062211e+00  2.1586118981616078e+00  2.0341794960408328e+00  1.8922683877000595e+00  1.7356803648927821e+00  1.5705603195545488e+00  1.4054480887148004e+00  1.2489057746806700e+00  1.1070703901824668e+00  9.8274282129389012e-01  8.7605193532185333e-01  7.8539816339744661e-01  7.0863068134344376e-01  6.4350960855592898e-01  5.8811433959597204e-01  5.4280686074526607e-01  2.5279828196171255e+00  2.4804008578002494e+00  2.4227367759870631e+00  2.3561595192734517e+00  2.2793753101802063e+00  2.1909873678743694e+00  2.0898719594674251e+00  1.9755784503349565e+00  1.8489524789388119e+00  1.7125281152411003e+00  1.5706313182531073e+00  1.4287500598239196e+00  1.2923748145947977e+00  1.1658365680009295e+00  1.0516311063768922e+00  9.5053400094945950e-01  8.6216564545145113e-01  7.8539816339744828e-01  7.1883546048258140e-01  6.6118241957174084e-01  6.1359646540518531e-01  2.4635291113553617e+00  2.4147896457534719e+00  2.3561885001299858e+00  2.2896129273890797e+00  2.2142724237136324e+00  2.1293603516060893e+00  2.0344002121708167e+00  1.9295177428521453e+00  1.8157229189414845e+00  1.6950980488843501e+00  1.5707409324680275e+00  1.4463953395672058e+00  1.3257778511346954e+00  1.2119943206028700e+00  1.1071270122276207e+00  1.0121837042780066e+00  9.2728671823896658e-01  8.5196086631231516e-01  7.8539816339744828e-01  7.2680665679851042e-01  6.7805691300774940e-01  2.4052118120797732e+00  2.3563228793421294e+00  2.2977212211542377e+00  2.2320800654996895e+00  2.1589940342196337e+00  2.0780480454652928e+00  1.9891361311263509e+00  1.8926289450630378e+00  1.7895184581470602e+00  1.6814815254449780e+00  1.5708022795067884e+00  1.4601256432899616e+00  1.3520961039826904e+00  1.2489970675578892e+00  1.1525047191247833e+00  1.0636097907375528e+00  9.8268198719892452e-01  9.0961390722315549e-01  8.4398966999638592e-01  7.8539816339744828e-01  7.3642309496313940e-01  2.3573610099258735e+00  2.3094233555631933e+00  2.2511137730841173e+00  2.1866654223479260e+00  2.1158793825269600e+00  2.0385871813039023e+00  1.9548889284336806e+00  1.8652510579929267e+00  1.7705771846523088e+00  1.6722214248025200e+00  1.5719167669646978e+00  1.4716143536679920e+00  1.3732645681139886e+00  1.2785992214651651e+00  1.1889702575137751e+00  1.1052789589778578e+00  1.0279894660496307e+00  9.5719986138971125e-01  8.9273941378714672e-01  8.3437323183175682e-01  7.8539816339744828e-01  4.5149799399092778e+00  4.9098738826713255e+00  3.9269908169887517e+00  4.4674203251639213e+00  4.1243814190178005e+00  4.3906491304327613e+00  4.9573914766508160e+00  4.7124008568572275e+00  5.0341754675322949e+00  5.3004177561068637e+00  5.4978333929447381e+00  3.3390016940222798e+00  3.7296002150400809e+00  3.3865613086880813e+00  3.4633324555883536e+00  4.2487268267212244e+00  3.6052546375695087e+00  3.9269809356278045e+00  5.1760581540157711e+00  4.7122233034216041e+00  5.4977927518348615e+00  5.6951958821899291e+00  5.8195434861274915e+00  5.9614647663735223e+00  6.0382236343787907e+00  6.0857992763787676e+00  2.9441077513755278e+00  3.1415807700343379e+00  2.8965901556334450e+00  2.8198060725165499e+00  3.1415880716916691e+00  2.6779142292172637e+00  2.3561876601781782e+00  6.2829834643157163e+00  1.5709706140475665e+00  7.8541260502656052e-01  6.2831853071795862e+00  4.6364744528230928e-01  3.2177347136854395e-01  2.4499591506389662e-01  1.9747391770916994e-01  2.5535639031286830e+00  2.3561488279127740e+00  2.0344504557330998e+00  2.1587864563464478e+00  1.8925216959644744e+00  1.1071501232494660e+00  1.5707844545869183e+00  1.2490261963699454e+00  5.8801352927067074e-01  9.8278214908162664e-01  7.8539760413808180e-01  1.8157604480773639e+00  1.7681899861627939e+00  1.3258025785915453e+00  1.3733255126079071e+00  </DataArray> 
</PointData> 
</Piece>
</UnstructuredGrid>
</VTKFile>