<?xml version="1.0"?>
<VTKFile type="UnstructuredGrid"  version="0.1"  >
<UnstructuredGrid>
<Piece  NumberOfPoints="497" NumberOfCells="912">
<Points>
<DataArray  type="Float64"  NumberOfComponents="3"  format="ascii">0 0 0  0.05 0 0  0.1 0 0  0.15 0 0  0.2 0 0  0.25 0 0  0.3 0 0  0.35 0 0  0.4 0 0  0.45 0 0  0.5 0 0  0.55 0 0  0.6 0 0  0.65 0 0  0.7 0 0  0.75 0 0  0.8 0 0  0.85 0 0  0.9 0 0  0.95 0 0  1 0 0  0 0.05 0  0.05 0.05 0  0.1 0.05 0  0.15 0.05 0  0.2 0.05 0  0.25 0.05 0  0.3 0.05 0  0.35 0.05 0  0.4 0.05 0  0.45 0.05 0  0.5 0.05 0  0.55 0.05 0  0.6 0.05 0  0.65 0.05 0  0.7 0.05 0  0.75 0.05 0  0.8 0.05 0  0.85 0.05 0  0.9 0.05 0  0.95 0.05 0  1 0.05 0  0 0.1 0  0.05 0.1 0  0.1 0.1 0  0.15 0.1 0  0.2 0.1 0  0.25 0.1 0  0.3 0.1 0  0.35 0.1 0  0.4 0.1 0  0.45 0.1 0  0.5 0.1 0  0.55 0.1 0  0.6 0.1 0  0.65 0.1 0  0.7 0.1 0  0.75 0.1 0  0.8 0.1 0  0.85 0.1 0  0.9 0.1 0  0.95 0.1 0  1 0.1 0  0 0.15 0  0.05 0.15 0  0.1 0.15 0  0.15 0.15 0  0.2 0.15 0  0.25 0.15 0  0.3 0.15 0  0.35 0.15 0  0.4 0.15 0  0.45 0.15 0  0.5 0.15 0  0.55 0.15 0  0.6 0.15 0  0.65 0.15 0  0.7 0.15 0  0.75 0.15 0  0.8 0.15 0  0.85 0.15 0  0.9 0.15 0  0.95 0.15 0  1 0.15 0  0 0.2 0  0.05 0.2 0  0.1 0.2 0  0.15 0.2 0  0.2 0.2 0  0.25 0.2 0  0.3 0.2 0  0.35 0.2 0  0.4 0.2 0  0.45 0.2 0  0.5 0.2 0  0.55 0.2 0  0.6 0.2 0  0.65 0.2 0  0.7 0.2 0  0.75 0.2 0  0.8 0.2 0  0.85 0.2 0  0.9 0.2 0  0.95 0.2 0  1 0.2 0  0 0.25 0  0.05 0.25 0  0.1 0.25 0  0.15 0.25 0  0.2 0.25 0  0.25 0.25 0  0.3 0.25 0  0.35 0.25 0  0.4 0.25 0  0.45 0.25 0  0.5 0.25 0  0.55 0.25 0  0.6 0.25 0  0.65 0.25 0  0.7 0.25 0  0.75 0.25 0  0.8 0.25 0  0.85 0.25 0  0.9 0.25 0  0.95 0.25 0  1 0.25 0  0 0.3 0  0.05 0.3 0  0.1 0.3 0  0.15 0.3 0  0.2 0.3 0  0.25 0.3 0  0.3 0.3 0  0.35 0.3 0  0.4 0.3 0  0.45 0.3 0  0.5 0.3 0  0.55 0.3 0  0.6 0.3 0  0.65 0.3 0  0.7 0.3 0  0.75 0.3 0  0.8 0.3 0  0.85 0.3 0  0.9 0.3 0  0.95 0.3 0  1 0.3 0  0 0.35 0  0.05 0.35 0  0.1 0.35 0  0.15 0.35 0  0.2 0.35 0  0.25 0.35 0  0.3 0.35 0  0.35 0.35 0  0.4 0.35 0  0.45 0.35 0  0.5 0.35 0  0.55 0.35 0  0.6 0.35 0  0.65 0.35 0  0.7 0.35 0  0.75 0.35 0  0.8 0.35 0  0.85 0.35 0  0.9 0.35 0  0.95 0.35 0  1 0.35 0  0 0.4 0  0.05 0.4 0  0.1 0.4 0  0.15 0.4 0  0.2 0.4 0  0.25 0.4 0  0.3 0.4 0  0.35 0.4 0  0.4 0.4 0  0.45 0.4 0  0.5 0.4 0  0.55 0.4 0  0.6 0.4 0  0.65 0.4 0  0.7 0.4 0  0.75 0.4 0  0.8 0.4 0  0.85 0.4 0  0.9 0.4 0  0.95 0.4 0  1 0.4 0  0 0.45 0  0.05 0.45 0  0.1 0.45 0  0.15 0.45 0  0.2 0.45 0  0.25 0.45 0  0.3 0.45 0  0.35 0.45 0  0.4 0.45 0  0.45 0.45 0  0.5 0.45 0  0.55 0.45 0  0.6 0.45 0  0.65 0.45 0  0.7 0.45 0  0.75 0.45 0  0.8 0.45 0  0.85 0.45 0  0.9 0.45 0  0.95 0.45 0  1 0.45 0  0 0.5 0  0.05 0.5 0  0.1 0.5 0  0.15 0.5 0  0.2 0.5 0  0.25 0.5 0  0.3 0.5 0  0.35 0.5 0  0.4 0.5 0  0.45 0.5 0  0.5 0.5 0  0.55 0.5 0  0.6 0.5 0  0.65 0.5 0  0.7 0.5 0  0.75 0.5 0  0.8 0.5 0  0.85 0.5 0  0.9 0.5 0  0.95 0.5 0  1 0.5 0  0 0.55 0  0.05 0.55 0  0.1 0.55 0  0.15 0.55 0  0.2 0.55 0  0.25 0.55 0  0.3 0.55 0  0.35 0.55 0  0.4 0.55 0  0.45 0.55 0  0.5 0.55 0  0.55 0.55 0  0.6 0.55 0  0.65 0.55 0  0.7 0.55 0  0.75 0.55 0  0.8 0.55 0  0.85 0.55 0  0.9 0.55 0  0.95 0.55 0  1 0.55 0  0 0.6 0  0.05 0.6 0  0.1 0.6 0  0.15 0.6 0  0.2 0.6 0  0.25 0.6 0  0.3 0.6 0  0.35 0.6 0  0.4 0.6 0  0.45 0.6 0  0.5 0.6 0  0.55 0.6 0  0.6 0.6 0  0.65 0.6 0  0.7 0.6 0  0.75 0.6 0  0.8 0.6 0  0.85 0.6 0  0.9 0.6 0  0.95 0.6 0  1 0.6 0  0 0.65 0  0.05 0.65 0  0.1 0.65 0  0.15 0.65 0  0.2 0.65 0  0.25 0.65 0  0.3 0.65 0  0.35 0.65 0  0.4 0.65 0  0.45 0.65 0  0.5 0.65 0  0.55 0.65 0  0.6 0.65 0  0.65 0.65 0  0.7 0.65 0  0.75 0.65 0  0.8 0.65 0  0.85 0.65 0  0.9 0.65 0  0.95 0.65 0  1 0.65 0  0 0.7 0  0.05 0.7 0  0.1 0.7 0  0.15 0.7 0  0.2 0.7 0  0.25 0.7 0  0.3 0.7 0  0.35 0.7 0  0.4 0.7 0  0.45 0.7 0  0.5 0.7 0  0.55 0.7 0  0.6 0.7 0  0.65 0.7 0  0.7 0.7 0  0.75 0.7 0  0.8 0.7 0  0.85 0.7 0  0.9 0.7 0  0.95 0.7 0  1 0.7 0  0 0.75 0  0.05 0.75 0  0.1 0.75 0  0.15 0.75 0  0.2 0.75 0  0.25 0.75 0  0.3 0.75 0  0.35 0.75 0  0.4 0.75 0  0.45 0.75 0  0.5 0.75 0  0.55 0.75 0  0.6 0.75 0  0.65 0.75 0  0.7 0.75 0  0.75 0.75 0  0.8 0.75 0  0.85 0.75 0  0.9 0.75 0  0.95 0.75 0  1 0.75 0  0 0.8 0  0.05 0.8 0  0.1 0.8 0  0.15 0.8 0  0.2 0.8 0  0.25 0.8 0  0.3 0.8 0  0.35 0.8 0  0.4 0.8 0  0.45 0.8 0  0.5 0.8 0  0.55 0.8 0  0.6 0.8 0  0.65 0.8 0  0.7 0.8 0  0.75 0.8 0  0.8 0.8 0  0.85 0.8 0  0.9 0.8 0  0.95 0.8 0  1 0.8 0  0 0.85 0  0.05 0.85 0  0.1 0.85 0  0.15 0.85 0  0.2 0.85 0  0.25 0.85 0  0.3 0.85 0  0.35 0.85 0  0.4 0.85 0  0.45 0.85 0  0.5 0.85 0  0.55 0.85 0  0.6 0.85 0  0.65 0.85 0  0.7 0.85 0  0.75 0.85 0  0.8 0.85 0  0.85 0.85 0  0.9 0.85 0  0.95 0.85 0  1 0.85 0  0 0.9 0  0.05 0.9 0  0.1 0.9 0  0.15 0.9 0  0.2 0.9 0  0.25 0.9 0  0.3 0.9 0  0.35 0.9 0  0.4 0.9 0  0.45 0.9 0  0.5 0.9 0  0.55 0.9 0  0.6 0.9 0  0.65 0.9 0  0.7 0.9 0  0.75 0.9 0  0.8 0.9 0  0.85 0.9 0  0.9 0.9 0  0.95 0.9 0  1 0.9 0  0 0.95 0  0.05 0.95 0  0.1 0.95 0  0.15 0.95 0  0.2 0.95 0  0.25 0.95 0  0.3 0.95 0  0.35 0.95 0  0.4 0.95 0  0.45 0.95 0  0.5 0.95 0  0.55 0.95 0  0.6 0.95 0  0.65 0.95 0  0.7 0.95 0  0.75 0.95 0  0.8 0.95 0  0.85 0.95 0  0.9 0.95 0  0.95 0.95 0  1 0.95 0  0 1 0  0.05 1 0  0.1 1 0  0.15 1 0  0.2 1 0  0.25 1 0  0.3 1 0  0.35 1 0  0.4 1 0  0.45 1 0  0.5 1 0  0.55 1 0  0.6 1 0  0.65 1 0  0.7 1 0  0.75 1 0  0.8 1 0  0.85 1 0  0.9 1 0  0.95 1 0  1 1 0  0.475 0.375 0  0.525 0.375 0  0.425 0.425 0  0.475 0.4 0  0.45 0.425 0  0.475 0.425 0  0.525 0.4 0  0.5 0.425 0  0.525 0.425 0  0.55 0.425 0  0.575 0.425 0  0.375 0.475 0  0.425 0.45 0  0.4 0.475 0  0.425 0.475 0  0.475 0.45 0  0.45 0.475 0  0.475 0.475 0  0.525 0.45 0  0.5 0.475 0  0.525 0.475 0  0.575 0.45 0  0.55 0.475 0  0.575 0.475 0  0.6 0.475 0  0.625 0.475 0  0.375 0.525 0  0.425 0.5 0  0.4 0.525 0  0.425 0.525 0  0.475 0.5 0  0.45 0.525 0  0.475 0.525 0  0.525 0.5 0  0.5 0.525 0  0.525 0.525 0  0.575 0.5 0  0.55 0.525 0  0.575 0.525 0  0.6 0.525 0  0.625 0.525 0  0.425 0.55 0  0.425 0.575 0  0.475 0.55 0  0.45 0.575 0  0.475 0.575 0  0.525 0.55 0  0.5 0.575 0  0.525 0.575 0  0.575 0.55 0  0.55 0.575 0  0.575 0.575 0  0.475 0.6 0  0.475 0.625 0  0.525 0.6 0  0.525 0.625 0  </DataArray>
</Points>
<Cells>
[...]
<PointData  Scalars="f_15"> 
<DataArray  type="Float64"  Name="f_15"  format="ascii">-4.0511798380704518e-03  -9.4373181231862443e-03  -1.1599878607597732e-02  -1.3544807333764373e-02  -1.5474165158851800e-02  -1.7272133679152247e-02  -1.8759365220192514e-02  -1.9725919479560265e-02  -1.9986747059949246e-02  -1.9410381596328408e-02  -1.8012319829566293e-02  -1.5909898856897784e-02  -1.3342045402846425e-02  -1.0582260903716497e-02  -7.8668365090712837e-03  -5.3746185313253052e-03  -3.2022023131968876e-03  -1.3802418385581241e-03  9.0805079816895479e-05  1.1100451565654516e-03  6.7629302776296685e-04  -1.9932325067880879e-02  -2.3559335563467485e-02  -2.6620076267351737e-02  -2.9637829319124936e-02  -3.2784133044978257e-02  -3.5965187160889658e-02  -3.8956974493951413e-02  -4.1458185951209307e-02  -4.3168404204781914e-02  -4.3892397469542349e-02  -4.3501602618826740e-02  -4.2032598639052322e-02  -3.9708555639169217e-02  -3.6859145135161038e-02  -3.3724312791420984e-02  -3.0589086523009609e-02  -2.7614562708963113e-02  -2.4867465549671737e-02  -2.2375824509658686e-02  -2.0193931983298222e-02  -1.8750645238468509e-02  -4.1918950076140833e-02  -4.7598174298804863e-02  -5.3214521111866010e-02  -5.9297224805901660e-02  -6.5867281519681964e-02  -7.2553722142700186e-02  -7.8871154531631640e-02  -8.4240472828497504e-02  -8.8328003309121869e-02  -9.0416813379361638e-02  -9.1024016502167002e-02  -8.9199344486295989e-02  -8.5418773013224383e-02  -8.0000278652383378e-02  -7.3616589508663302e-02  -6.7002335579047556e-02  -6.0710575454339236e-02  -5.4871663706603006e-02  -4.9533663282657618e-02  -4.4747588651457629e-02  -4.0803812342123873e-02  -6.7519880043385841e-02  -7.6556408650963220e-02  -8.6114485121064968e-02  -9.6799492761951031e-02  -1.0830814486898610e-01  -1.2040315258742938e-01  -1.2959588336019029e-01  -1.3612718710384453e-01  -1.4190565103384370e-01  -1.4683403040735477e-01  -1.4824643194923379e-01  -1.4987373963769621e-01  -1.4728316352096824e-01  -1.4049748223858929e-01  -1.2731564072488274e-01  -1.1413211226971680e-01  -1.0215982170910079e-01  -9.1443070613611066e-02  -8.1851714102959300e-02  -7.3364037586874487e-02  -6.6242258046800409e-02  -9.6479023216489615e-02  -1.0981554511973650e-01  -1.2460549900934761e-01  -1.4126243114643922e-01  -1.6022462128755266e-01  -1.7598171393177903e-01  -1.9045043246004115e-01  -1.9504902281699821e-01  -1.9559300709144153e-01  -1.9727800332278153e-01  -1.9901794161225944e-01  -2.0028982239707371e-01  -2.0198976753655618e-01  -2.0477047281743749e-01  -2.0220957611264204e-01  -1.7555533676155383e-01  -1.5337573746355737e-01  -1.3520618317955935e-01  -1.1966843734263734e-01  -1.0624484659659522e-01  -9.5045172058866950e-02  -1.2851972882601589e-01  -1.4707279733730799e-01  -1.6827387844587263e-01  -1.9333979161428194e-01  -2.1843747324464882e-01  -2.4325076839556378e-01  -2.4507754745438193e-01  -2.4783985128710390e-01  -2.4904861948271978e-01  -2.4935345150842125e-01  -2.4961769407992376e-01  -2.4983391625435530e-01  -2.5008155680651445e-01  -2.5098689432436089e-01  -2.5430019815942578e-01  -2.5863924244565711e-01  -2.1744641141971746e-01  -1.8688898845940113e-01  -1.6304764084488760e-01  -1.4325186944915502e-01  -1.2697472144510535e-01  -1.6305836642747623e-01  -1.8765152431578921e-01  -2.1669910535833140e-01  -2.5083928251480897e-01  -2.8654294436277628e-01  -2.9631262167955119e-01  -2.9902611691010428e-01  -2.9938760299175016e-01  -2.9967359665652304e-01  -2.9978215794060536e-01  -2.9980455023088370e-01  -2.9982050104718250e-01  -2.9985338370467185e-01  -3.0001026028361116e-01  -3.0084656281219796e-01  -3.0574227259981890e-01  -2.9879598087937281e-01  -2.4749808829710543e-01  -2.1163774519753251e-01  -1.8384356410370126e-01  -1.6148939972430248e-01  -1.9914290898291551e-01  -2.3035794164197451e-01  -2.6852008833077129e-01  -3.1416414451886038e-01  -3.4624120051493190e-01  -3.4876826870872168e-01  -3.4953726401449031e-01  -3.4980217741109410e-01  -3.4983882698115432e-01  -3.4987757905257438e-01  -3.4988559179948581e-01  -3.4986952007601957e-01  -3.4986519744088063e-01  -3.4988661721471714e-01  -3.5009038644416801e-01  -3.5170581699785042e-01  -3.5703566860017077e-01  -3.1769388789103653e-01  -2.6422373797906762e-01  -2.2695339130489681e-01  -1.9768471698177095e-01  -2.3546585246752297e-01  -2.7341857571550188e-01  -3.2118775712088049e-01  -3.8034876895305836e-01  -3.9825382381890512e-01  -3.9976217383796459e-01  -3.9978020552976701e-01  -3.9988406911292002e-01  -3.9991617224354264e-01  -3.9993507918745669e-01  -3.9995787291781865e-01  -3.9994850798961540e-01  -3.9991226505157240e-01  -3.9990861547298567e-01  -3.9997360686678429e-01  -4.0056220352707556e-01  -4.0486428356866949e-01  -3.8582418091069792e-01  -3.1817157828545473e-01  -2.7080021758561867e-01  -2.3427008611920083e-01  -2.7045541253526684e-01  -3.1476073301360563e-01  -3.7124243473680868e-01  -4.4347410953262428e-01  -4.4899944286388199e-01  -4.4977535713275379e-01  -4.4991669222365832e-01  -4.4994821483210168e-01  -4.4995897199678953e-01  -4.4998583272209652e-01  -4.4998681220787151e-01  -4.4998605644173950e-01  -4.4996990504357831e-01  -4.4995278204066935e-01  -4.4994404244604008e-01  -4.5004786946107522e-01  -4.5143823119707333e-01  -4.4756783472934197e-01  -3.6992495945312753e-01  -3.1325734368157249e-01  -2.6968304973699703e-01  -3.0247076438051401e-01  -3.5197972865771127e-01  -4.1609628399472698e-01  -4.9695984929570081e-01  -4.9973682164284006e-01  -4.9981746816608763e-01  -4.9996644682929248e-01  -4.9998609165819458e-01  -4.9999886913711200e-01  -4.9999960116235614e-01  -4.9999939113730102e-01  -4.9999945652608851e-01  -4.9999798805289219e-01  -4.9999145239332932e-01  -4.9994405806428027e-01  -4.9960595334885388e-01  -4.9914247383773025e-01  -4.9766329137040077e-01  -4.1639576031699910e-01  -3.5195289396593671e-01  -3.0225347655414514e-01  -3.3004867486911044e-01  -3.8318470143200417e-01  -4.5173670154411233e-01  -5.4092688874811101e-01  -5.4987575845417591e-01  -5.4989492356150638e-01  -5.5000926316308052e-01  -5.5002285903496195e-01  -5.5002543080337296e-01  -5.5001274313572812e-01  -5.5001221428785785e-01  -5.5001255428426377e-01  -5.5002703189534907e-01  -5.5000439184740979e-01  -5.4991975790729730e-01  -5.4914653489142762e-01  -5.4557575416488413e-01  -5.3987272532476738e-01  -4.5285796270252315e-01  -3.8454493119849870e-01  -3.3039968209415316e-01  -3.5211812257898789e-01  -4.0699639373949226e-01  -4.7691396633312227e-01  -5.6830594438576942e-01  -5.9967682882945583e-01  -5.9982178803006136e-01  -6.0002596864423297e-01  -6.0006342607738949e-01  -6.0006749871159615e-01  -6.0004547995387147e-01  -6.0003735615501075e-01  -6.0005230447362556e-01  -6.0005632881166648e-01  -6.0000479749927649e-01  -5.9964541167687324e-01  -5.9877288698293096e-01  -5.9228201185673834e-01  -5.6419255523400336e-01  -4.8011965111984889e-01  -4.0955702047058407e-01  -3.5301238976737065e-01  -3.6813529409663415e-01  -4.2289309902515049e-01  -4.9110946629733082e-01  -5.7891802977683493e-01  -6.4429549133362385e-01  -6.4930350806303261e-01  -6.4985376288720631e-01  -6.5005718782498156e-01  -6.5008952153739963e-01  -6.5009961902956992e-01  -6.5008770374531666e-01  -6.5007267289958381e-01  -6.5002447460663149e-01  -6.4989162651804300e-01  -6.4877301594512315e-01  -6.4525284513685544e-01  -6.3664309173811495e-01  -5.7404492036355581e-01  -4.9549675929291809e-01  -4.2632525984781816e-01  -3.6942176250982356e-01  -3.7810643511440295e-01  -4.3113811769469040e-01  -4.9579952323654453e-01  -5.7387212359191475e-01  -6.6569626137894444e-01  -6.9650729223963781e-01  -6.9846435592245992e-01  -6.9967282342607906e-01  -6.9991514280630818e-01  -7.0003967177373383e-01  -7.0003680218470277e-01  -6.9999412836306274e-01  -6.9961010208522445e-01  -6.9858052239215884e-01  -6.9669816594181766e-01  -6.8542617663739269e-01  -6.5862330456273610e-01  -5.7461148072043100e-01  -5.0056876873451295e-01  -4.3497353507651543e-01  -3.7962563758724466e-01  -3.8247567687246925e-01  -4.3257463372672639e-01  -4.9223420611275409e-01  -5.6205113454392841e-01  -6.4216149056440441e-01  -7.2596876037763558e-01  -7.4140495702426423e-01  -7.4659144842415881e-01  -7.4815968971687186e-01  -7.4921173953790543e-01  -7.4917879852149472e-01  -7.4858955520172055e-01  -7.4715977365072750e-01  -7.4272470004193614e-01  -7.3024774106383394e-01  -7.1809774698206175e-01  -6.3928840600981152e-01  -5.6798251330153759e-01  -4.9728586017234794e-01  -4.3645330675509186e-01  -3.8406902521279834e-01  -3.8197830904851660e-01  -4.2836505564528221e-01  -4.8225571299539294e-01  -5.4362322972681576e-01  -6.1227446319107259e-01  -6.8551439559250071e-01  -7.5301939899613257e-01  -7.7909329877450262e-01  -7.8773418024282427e-01  -7.9308460683747528e-01  -7.9342726576483780e-01  -7.8938816277606483e-01  -7.8018592379693941e-01  -7.7059655062827914e-01  -7.4541545031887801e-01  -6.8309786155477392e-01  -6.1885800873436447e-01  -5.4918415721357383e-01  -4.8726741803843976e-01  -4.3199094580688463e-01  -3.8351923904536878e-01  -3.7748141980964145e-01  -4.1977466620953691e-01  -4.6771550673366841e-01  -5.2087091100737581e-01  -5.7869500677205121e-01  -6.3955096290082003e-01  -6.9893399174769988e-01  -7.4896486719170663e-01  -7.8465701943586441e-01  -8.0766713892677544e-01  -8.1073960408654511e-01  -8.0565471555362567e-01  -7.8061028535708243e-01  -7.4490270949374460e-01  -7.0055813452255389e-01  -6.4568833815688342e-01  -5.8425815888554988e-01  -5.2623612741325543e-01  -4.7201136919090758e-01  -4.2302293193944779e-01  -3.7889567290450260e-01  -3.6985425925704368e-01  -4.0801289919047573e-01  -4.5023459241838798e-01  -4.9590017641926137e-01  -5.4422932102309785e-01  -5.9382046502251562e-01  -6.4216726628801413e-01  -6.8516787044701621e-01  -7.2014106474628337e-01  -7.4351799575654298e-01  -7.5149893771071263e-01  -7.4475606391593541e-01  -7.2345786748584928e-01  -6.8965791150191058e-01  -6.4711378994012358e-01  -5.9897007553152526e-01  -5.4929344423192705e-01  -5.0031472785322573e-01  -4.5394493833876659e-01  -4.1089206651245364e-01  -3.7113095085394487e-01  -3.5991818574282791e-01  -3.9433470643842450e-01  -4.3135404115240039e-01  -4.7050797787917487e-01  -5.1096530557016906e-01  -5.5145624626672141e-01  -5.9013988998463385e-01  -6.2455834017345979e-01  -6.5221082260908958e-01  -6.7052861180918955e-01  -6.7735219206871067e-01  -6.7235177697731674e-01  -6.5554030314282863e-01  -6.2905458015926541e-01  -5.9519990694863845e-01  -5.5667639460758767e-01  -5.1606095479651160e-01  -4.7526047225182133e-01  -4.3559475356167432e-01  -3.9761414719464694e-01  -3.6140712889738680e-01  -3.4930909483365286e-01  -3.8099005721925377e-01  -4.1368486861769022e-01  -4.4765808978344490e-01  -4.8220477489867969e-01  -5.1624071851056141e-01  -5.4831329679428642e-01  -5.7664547340117689e-01  -5.9933345492437373e-01  -6.1455463266768362e-01  -6.2092323301761909e-01  -6.1789517386476023e-01  -6.0567889114152451e-01  -5.8544347790385221e-01  -5.5886039336340665e-01  -5.2784274229143779e-01  -4.9425667634849041e-01  -4.5967360349375980e-01  -4.2529657649399599e-01  -3.9156483425261862e-01  -3.5435494242087101e-01  -3.7495297903082569e-01  -3.7495086717496140e-01  -4.2497143303085172e-01  -3.9997966794459916e-01  -4.2498053854204504e-01  -4.2497799610594023e-01  -3.9997948433457914e-01  -4.2498420545205490e-01  -4.2497885021512971e-01  -4.2498251711349594e-01  -4.2497015762225937e-01  -4.7498688280788126e-01  -4.4998912395271234e-01  -4.7499090377959619e-01  -4.7499117431059895e-01  -4.4999067628735950e-01  -4.7499488846716403e-01  -4.7499421059473207e-01  -4.4999074503966435e-01  -4.7499589874808634e-01  -4.7499389017243621e-01  -4.4998909182120411e-01  -4.7499506961543692e-01  -4.7499250893735911e-01  -4.7499247842147108e-01  -4.7498669090164841e-01  -5.2500655732203427e-01  -4.9999934649503147e-01  -5.2500529852339606e-01  -5.2500610778998147e-01  -4.9999990967213076e-01  -5.2500447128967753e-01  -5.2500542768382008e-01  -4.9999839372573657e-01  -5.2500354559843310e-01  -5.2500313789526576e-01  -4.9999946214936525e-01  -5.2500412151758458e-01  -5.2500627429848246e-01  -5.2500554241790109e-01  -5.2500381101157279e-01  -5.5000928884740252e-01  -5.7502584582913951e-01  -5.5000865082643302e-01  -5.7501560689279974e-01  -5.7501961252256817e-01  -5.5000816818841680e-01  -5.7501447757711588e-01  -5.7501991752640469e-01  -5.5000913513090000e-01  -5.7501696825313220e-01  -5.7502398759796847e-01  -6.0001834804608756e-01  -6.2504240232338637e-01  -6.0001810854799120e-01  -6.2503924942237821e-01  </DataArray> 
</PointData> 
</Piece>
</UnstructuredGrid>
</VTKFile>